 Gaussian 16, Revision C.01,
 Gaussian 16:  ES64L-G16RevC.01  3-Jul-2019

 ----------------------------------------------------------------------
 #p m062x cc-pvdz scrf=(cpcm,solvent=DiMethylSulfoxide) td=(nstate=6,ro
 ot=1) opt=tight nosymm density=all int=ultrafine fchk
 ----------------------------------------------------------------------

 --------------------------------------
 BDP-PP-phenyl, optimized R1 in toluene
 --------------------------------------
 Symbolic Z-matrix:
 Charge =  0 Multiplicity = 1

 SCF Done:  E(RM062X) =  -1374.14878338     A.U. after   13 cycles
 Total Energy, E(TD-HF/TD-DFT) =  -1374.08402720
 SCF Done:  E(RM062X) =  -1374.14962633     A.U. after   11 cycles
 Total Energy, E(TD-HF/TD-DFT) =  -1374.08415983
 SCF Done:  E(RM062X) =  -1374.14967361     A.U. after   10 cycles
 Total Energy, E(TD-HF/TD-DFT) =  -1374.08418611
 SCF Done:  E(RM062X) =  -1374.14984381     A.U. after    8 cycles
 Total Energy, E(TD-HF/TD-DFT) =  -1374.08419941
 SCF Done:  E(RM062X) =  -1374.14988458     A.U. after    7 cycles
 Total Energy, E(TD-HF/TD-DFT) =  -1374.08420021
 SCF Done:  E(RM062X) =  -1374.14989931     A.U. after    7 cycles
 Total Energy, E(TD-HF/TD-DFT) =  -1374.08420067
 SCF Done:  E(RM062X) =  -1374.14988756     A.U. after    6 cycles
 Total Energy, E(TD-HF/TD-DFT) =  -1374.08420085
 SCF Done:  E(RM062X) =  -1374.14988179     A.U. after    7 cycles
 Total Energy, E(TD-HF/TD-DFT) =  -1374.08420108
 SCF Done:  E(RM062X) =  -1374.14987655     A.U. after    7 cycles
 Total Energy, E(TD-HF/TD-DFT) =  -1374.08420119
 SCF Done:  E(RM062X) =  -1374.14987201     A.U. after    7 cycles
 Total Energy, E(TD-HF/TD-DFT) =  -1374.08420129
 Total Energy, E(TD-HF/TD-DFT) =  -1374.08420137
 Total Energy, E(TD-HF/TD-DFT) =  -1374.08420132
 Total Energy, E(TD-HF/TD-DFT) =  -1374.08420132
 SCF Done:  E(RM062X) =  -1374.14986011     A.U. after    5 cycles
 Total Energy, E(TD-HF/TD-DFT) =  -1374.08420140
 SCF Done:  E(RM062X) =  -1374.14986048     A.U. after    5 cycles
 Total Energy, E(TD-HF/TD-DFT) =  -1374.08420140
 SCF Done:  E(RM062X) =  -1374.14985905     A.U. after    5 cycles
 Total Energy, E(TD-HF/TD-DFT) =  -1374.08420135
 SCF Done:  E(RM062X) =  -1374.14985850     A.U. after    5 cycles
 Total Energy, E(TD-HF/TD-DFT) =  -1374.08420143
 SCF Done:  E(RM062X) =  -1374.14985895     A.U. after    4 cycles
 Total Energy, E(TD-HF/TD-DFT) =  -1374.08420144
 SCF Done:  E(RM062X) =  -1374.14985826     A.U. after    5 cycles
 Total Energy, E(TD-HF/TD-DFT) =  -1374.08420137
 SCF Done:  E(RM062X) =  -1374.14985862     A.U. after    5 cycles
 Total Energy, E(TD-HF/TD-DFT) =  -1374.08420141
 SCF Done:  E(RM062X) =  -1374.14985870     A.U. after    3 cycles
 Total Energy, E(TD-HF/TD-DFT) =  -1374.08420143
 SCF Done:  E(RM062X) =  -1374.14985893     A.U. after    4 cycles
 Total Energy, E(TD-HF/TD-DFT) =  -1374.08420144
 SCF Done:  E(RM062X) =  -1374.14985884     A.U. after    4 cycles

 Excitation energies and oscillator strengths:

 Excited state symmetry could not be determined.
 Excited State   1:      Singlet-?Sym    1.7866 eV  693.96 nm  f=0.5387  <S**2>=0.000
     109 ->110         0.69410
 This state for optimization and/or second-order correction.
 Total Energy, E(TD-HF/TD-DFT) =  -1374.08420143
 Copying the excited state density for this state as the 1-particle RhoCI density.

 Excited state symmetry could not be determined.
 Excited State   2:      Singlet-?Sym    2.7723 eV  447.23 nm  f=0.4701  <S**2>=0.000
     101 ->110        -0.10601
     104 ->110         0.10141
     108 ->110         0.68306

 Excited state symmetry could not be determined.
 Excited State   3:      Singlet-?Sym    3.0868 eV  401.66 nm  f=0.1121  <S**2>=0.000
     102 ->110        -0.14067
     107 ->110         0.68078

 Excited state symmetry could not be determined.
 Excited State   4:      Singlet-?Sym    3.3774 eV  367.10 nm  f=0.3152  <S**2>=0.000
     101 ->110         0.11416
     104 ->110         0.49984
     106 ->110         0.46505
     108 ->110        -0.11525

 Excited state symmetry could not be determined.
 Excited State   5:      Singlet-?Sym    3.8177 eV  324.76 nm  f=0.0493  <S**2>=0.000
     103 ->110         0.69538

 Excited state symmetry could not be determined.
 Excited State   6:      Singlet-?Sym    4.2608 eV  290.99 nm  f=0.0028  <S**2>=0.000
     104 ->110        -0.46666
     106 ->110         0.50813

 Optimization completed.
    -- Stationary point found.

                          Input orientation:
 ---------------------------------------------------------------------
 Center     Atomic      Atomic             Coordinates (Angstroms)
 Number     Number       Type             X           Y           Z
 ---------------------------------------------------------------------
      1          7           0       12.948114   -9.209079   -0.631415
      2          6           0       14.106959   -9.818566   -0.406645
      3          6           0       14.943539   -8.981149    0.387798
      4          6           0       14.198199   -7.812300    0.637963
      5          6           0       12.956593   -7.947576   -0.003041
      6          6           0       10.552171   -4.957885    0.133736
      7          6           0       10.559224   -3.571067    0.219706
      8          6           0       11.763679   -2.866212    0.263765
      9          6           0       12.964416   -3.574410    0.184446
     10          6           0       12.965122   -4.961236    0.098430
     11          6           0       11.757442   -5.699838    0.105677
     12          6           0       11.754093   -7.149636    0.006784
     13          6           0       10.549733   -7.944651    0.028157
     14          6           0        9.325385   -7.806911    0.701053
     15          6           0        8.570815   -8.973637    0.469132
     16          6           0        9.384581   -9.812403   -0.347346
     17          7           0       10.538831   -9.205753   -0.601180
     18          9           0       11.730075  -11.117507   -1.474671
     19          5           0       11.732532   -9.730308   -1.432842
     20          9           0       11.717219   -9.178546   -2.714161
     21          1           0       14.300056  -10.803392   -0.824992
     22          1           0       14.489222   -6.985234    1.276135
     23          1           0        9.595703   -5.468114    0.052370
     24          1           0        9.610116   -3.034412    0.240331
     25          1           0       11.766207   -1.778399    0.333801
     26          1           0       13.915184   -3.040359    0.177002
     27          1           0       13.917407   -5.474167   -0.010797
     28          1           0        9.052770   -6.979588    1.346903
     29          1           0        9.178635  -10.796590   -0.761064
     30          6           0       16.295356   -9.298039    0.829263
     31          6           0       17.076101   -8.332630    1.493866
     32          6           0       16.851931  -10.573221    0.607890
     33          6           0       18.363313   -8.633513    1.923702
     34          6           0       18.139758  -10.870139    1.038882
     35          6           0       18.901878   -9.903135    1.699068
     36          1           0       16.672009   -7.334755    1.666632
     37          1           0       16.268574  -11.342603    0.101329
     38          1           0       18.953092   -7.872413    2.435356
     39          1           0       18.552289  -11.863517    0.860491
     40          1           0       19.911939  -10.137630    2.036182
     41          6           0        7.230145   -9.287928    0.945042
     42          6           0        6.661879  -10.558844    0.728858
     43          6           0        6.472120   -8.324488    1.638291
     44          6           0        5.384675  -10.853476    1.191823
     45          6           0        5.195498   -8.623088    2.100122
     46          6           0        4.645037   -9.888358    1.879842
     47          1           0        7.227653  -11.326689    0.200495
     48          1           0        6.885460   -7.330019    1.808763
     49          1           0        4.962823  -11.843496    1.016632
     50          1           0        4.623320   -7.863537    2.633634
     51          1           0        3.643242  -10.120948    2.242005
 ---------------------------------------------------------------------

 Alpha  occ. eigenvalues --  -25.22368 -25.21552 -14.80510 -14.80509 -10.64084
 Alpha  occ. eigenvalues --  -10.60653 -10.60650 -10.60619 -10.60616 -10.59482
 Alpha  occ. eigenvalues --  -10.58068 -10.58065 -10.57910 -10.57189 -10.57188
 Alpha  occ. eigenvalues --  -10.57160 -10.57158 -10.57150 -10.57146 -10.56696
 Alpha  occ. eigenvalues --  -10.56695 -10.55862 -10.55861 -10.55801 -10.55800
 Alpha  occ. eigenvalues --  -10.55749 -10.55749 -10.55727 -10.55727 -10.55568
 Alpha  occ. eigenvalues --  -10.55567  -7.13703  -1.32455  -1.29194  -1.11763
 Alpha  occ. eigenvalues --   -1.09558  -0.99220  -0.96985  -0.96853  -0.93674
 Alpha  occ. eigenvalues --   -0.91075  -0.89967  -0.86728  -0.86006  -0.85445
 Alpha  occ. eigenvalues --   -0.84652  -0.84541  -0.84279  -0.80989  -0.77387
 Alpha  occ. eigenvalues --   -0.72619  -0.71207  -0.71053  -0.70241  -0.69784
 Alpha  occ. eigenvalues --   -0.68557  -0.67867  -0.65925  -0.65334  -0.64832
 Alpha  occ. eigenvalues --   -0.62343  -0.61619  -0.60985  -0.58614  -0.58315
 Alpha  occ. eigenvalues --   -0.57567  -0.57416  -0.55029  -0.54512  -0.53306
 Alpha  occ. eigenvalues --   -0.53165  -0.52566  -0.52331  -0.52143  -0.52087
 Alpha  occ. eigenvalues --   -0.51558  -0.50732  -0.49842  -0.49839  -0.49519
 Alpha  occ. eigenvalues --   -0.48682  -0.48651  -0.48173  -0.47768  -0.47175
 Alpha  occ. eigenvalues --   -0.46856  -0.46372  -0.46201  -0.46133  -0.45418
 Alpha  occ. eigenvalues --   -0.44536  -0.44453  -0.42820  -0.42460  -0.41263
 Alpha  occ. eigenvalues --   -0.40947  -0.40497  -0.39799  -0.39596  -0.38388
 Alpha  occ. eigenvalues --   -0.35872  -0.35110  -0.32755  -0.31540  -0.31368
 Alpha  occ. eigenvalues --   -0.31175  -0.29979  -0.27618  -0.24668
 Alpha virt. eigenvalues --   -0.10933   0.00015   0.00578   0.00766   0.01112
 Alpha virt. eigenvalues --    0.02179   0.02591   0.06988   0.08884   0.09381
 Alpha virt. eigenvalues --    0.10203   0.10621   0.11366   0.11482   0.12158

 Mulliken charges:
               1
     1  N   -0.166164
     2  C    0.110457
     3  C   -0.019674
     4  C   -0.108223
     5  C    0.136537
     6  C   -0.049298
     7  C    0.008459
     8  C   -0.001589
     9  C    0.008461
    10  C   -0.049286
    11  C    0.021934
    12  C   -0.000180
    13  C    0.136720
    14  C   -0.108389
    15  C   -0.019718
    16  C    0.110529
    17  N   -0.166192
    18  F   -0.231363
    19  B    0.191597
    20  F   -0.227564
    21  H    0.060385
    22  H    0.030217
    23  H    0.012055
    24  H    0.020563
    25  H    0.019986
    26  H    0.020574
    27  H    0.012149
    28  H    0.030321
    29  H    0.060425
    30  C    0.013166
    31  C   -0.032659
    32  C   -0.033656
    33  C    0.012155
    34  C    0.010484
    35  C    0.003596
    36  H    0.016965
    37  H    0.017052
    38  H    0.023372
    39  H    0.023501
    40  H    0.024008
    41  C    0.013350
    42  C   -0.033809
    43  C   -0.032742
    44  C    0.010572
    45  C    0.012208
    46  C    0.003686
    47  H    0.017097
    48  H    0.017006
    49  H    0.023509
    50  H    0.023385
    51  H    0.024030
 Sum of Mulliken charges =  -0.00000

 Dipole moment (field-independent basis, Debye):
    X=              0.0584    Y=              1.3440    Z=              5.1810  Tot=              5.3528
 Quadrupole moment (field-independent basis, Debye-Ang):
   XX=           -123.6425   YY=           -181.1522   ZZ=           -196.2007
   XY=             15.3478   XZ=             59.9658   YZ=            -40.5113

 Normal termination of Gaussian 16 at Mon Jan 31 19:16:55 2022.
