 Gaussian 16, Revision C.01,
 Gaussian 16:  ES64L-G16RevC.01  3-Jul-2019

 ----------------------------------------------------------------------
 #p m062x cc-pvdz scrf=(cpcm,solvent=n,n-DiMethylFormamide) td=(nstate=
 6,root=1) opt=tight nosymm density=all int=ultrafine fchk
 ----------------------------------------------------------------------

 --------------------------------------
 BDP-PP-phenyl, optimized R1 in toluene
 --------------------------------------
 Symbolic Z-matrix:
 Charge =  0 Multiplicity = 1

 SCF Done:  E(RM062X) =  -1374.14866382     A.U. after   13 cycles
 Total Energy, E(TD-HF/TD-DFT) =  -1374.08388383
 SCF Done:  E(RM062X) =  -1374.14949452     A.U. after   11 cycles
 Total Energy, E(TD-HF/TD-DFT) =  -1374.08401241
 SCF Done:  E(RM062X) =  -1374.14954193     A.U. after   10 cycles
 Total Energy, E(TD-HF/TD-DFT) =  -1374.08403792
 SCF Done:  E(RM062X) =  -1374.14970932     A.U. after    8 cycles
 Total Energy, E(TD-HF/TD-DFT) =  -1374.08405080
 SCF Done:  E(RM062X) =  -1374.14974937     A.U. after    7 cycles
 Total Energy, E(TD-HF/TD-DFT) =  -1374.08405157
 SCF Done:  E(RM062X) =  -1374.14976391     A.U. after    7 cycles
 Total Energy, E(TD-HF/TD-DFT) =  -1374.08405202
 SCF Done:  E(RM062X) =  -1374.14975242     A.U. after    6 cycles
 Total Energy, E(TD-HF/TD-DFT) =  -1374.08405219
 SCF Done:  E(RM062X) =  -1374.14974678     A.U. after    7 cycles
 Total Energy, E(TD-HF/TD-DFT) =  -1374.08405242
 SCF Done:  E(RM062X) =  -1374.14974164     A.U. after    7 cycles
 Total Energy, E(TD-HF/TD-DFT) =  -1374.08405252
 SCF Done:  E(RM062X) =  -1374.14973712     A.U. after    7 cycles
 Total Energy, E(TD-HF/TD-DFT) =  -1374.08405262
 Total Energy, E(TD-HF/TD-DFT) =  -1374.08405270
 Total Energy, E(TD-HF/TD-DFT) =  -1374.08405265
 Total Energy, E(TD-HF/TD-DFT) =  -1374.08405266
 Total Energy, E(TD-HF/TD-DFT) =  -1374.08405274
 SCF Done:  E(RM062X) =  -1374.14972546     A.U. after    5 cycles
 Total Energy, E(TD-HF/TD-DFT) =  -1374.08405273
 SCF Done:  E(RM062X) =  -1374.14972403     A.U. after    5 cycles
 Total Energy, E(TD-HF/TD-DFT) =  -1374.08405268
 SCF Done:  E(RM062X) =  -1374.14972345     A.U. after    5 cycles
 Total Energy, E(TD-HF/TD-DFT) =  -1374.08405277
 SCF Done:  E(RM062X) =  -1374.14972392     A.U. after    4 cycles
 Total Energy, E(TD-HF/TD-DFT) =  -1374.08405278
 SCF Done:  E(RM062X) =  -1374.14972361     A.U. after    5 cycles
 Total Energy, E(TD-HF/TD-DFT) =  -1374.08405271
 SCF Done:  E(RM062X) =  -1374.14972359     A.U. after    5 cycles
 Total Energy, E(TD-HF/TD-DFT) =  -1374.08405275
 SCF Done:  E(RM062X) =  -1374.14972371     A.U. after    3 cycles
 Total Energy, E(TD-HF/TD-DFT) =  -1374.08405276
 SCF Done:  E(RM062X) =  -1374.14972382     A.U. after    4 cycles
 Total Energy, E(TD-HF/TD-DFT) =  -1374.08405275
 SCF Done:  E(RM062X) =  -1374.14972378     A.U. after    3 cycles
 Total Energy, E(TD-HF/TD-DFT) =  -1374.08405266
 SCF Done:  E(RM062X) =  -1374.14972382     A.U. after    4 cycles

 Excitation energies and oscillator strengths:

 Excited state symmetry could not be determined.
 Excited State   1:      Singlet-?Sym    1.7870 eV  693.81 nm  f=0.5370  <S**2>=0.000
     109 ->110         0.69416
 This state for optimization and/or second-order correction.
 Total Energy, E(TD-HF/TD-DFT) =  -1374.08405272
 Copying the excited state density for this state as the 1-particle RhoCI density.

 Excited state symmetry could not be determined.
 Excited State   2:      Singlet-?Sym    2.7727 eV  447.17 nm  f=0.4669  <S**2>=0.000
     101 ->110        -0.10625
     104 ->110         0.10080
     108 ->110         0.68331

 Excited state symmetry could not be determined.
 Excited State   3:      Singlet-?Sym    3.0862 eV  401.74 nm  f=0.1121  <S**2>=0.000
     102 ->110        -0.14059
     107 ->110         0.68085

 Excited state symmetry could not be determined.
 Excited State   4:      Singlet-?Sym    3.3781 eV  367.02 nm  f=0.3161  <S**2>=0.000
     101 ->110         0.11398
     104 ->110         0.50246
     106 ->110         0.46260
     108 ->110        -0.11383

 Excited state symmetry could not be determined.
 Excited State   5:      Singlet-?Sym    3.8198 eV  324.58 nm  f=0.0491  <S**2>=0.000
     103 ->110         0.69534

 Excited state symmetry could not be determined.
 Excited State   6:      Singlet-?Sym    4.2602 eV  291.03 nm  f=0.0028  <S**2>=0.000
     104 ->110        -0.46422
     106 ->110         0.51079

 Optimization completed.
    -- Stationary point found.

                          Input orientation:
 ---------------------------------------------------------------------
 Center     Atomic      Atomic             Coordinates (Angstroms)
 Number     Number       Type             X           Y           Z
 ---------------------------------------------------------------------
      1          7           0       12.948078   -9.208578   -0.632100
      2          6           0       14.106752   -9.818289   -0.407074
      3          6           0       14.943222   -8.981136    0.387701
      4          6           0       14.197956   -7.812172    0.637832
      5          6           0       12.956574   -7.947198   -0.003529
      6          6           0       10.552140   -4.957535    0.133284
      7          6           0       10.559203   -3.570744    0.219389
      8          6           0       11.763668   -2.865902    0.263538
      9          6           0       12.964417   -3.574082    0.184154
     10          6           0       12.965136   -4.960881    0.098002
     11          6           0       11.757435   -5.699484    0.105180
     12          6           0       11.754088   -7.149178    0.006294
     13          6           0       10.549745   -7.944274    0.027674
     14          6           0        9.325630   -7.806781    0.700920
     15          6           0        8.571139   -8.973627    0.469046
     16          6           0        9.384786   -9.812134   -0.347753
     17          7           0       10.538856   -9.205257   -0.601851
     18          9           0       11.730062  -11.116797   -1.475794
     19          5           0       11.732519   -9.729625   -1.433787
     20          9           0       11.717201   -9.177492   -2.714841
     21          1           0       14.299766  -10.803073   -0.825545
     22          1           0       14.488876   -6.985224    1.276209
     23          1           0        9.595708   -5.467823    0.051808
     24          1           0        9.610108   -3.034065    0.240017
     25          1           0       11.766194   -1.778094    0.333660
     26          1           0       13.915170   -3.040003    0.176734
     27          1           0       13.917387   -5.473866   -0.011314
     28          1           0        9.053125   -6.979576    1.346974
     29          1           0        9.178918  -10.796281   -0.761596
     30          6           0       16.294882   -9.298229    0.829462
     31          6           0       17.075612   -8.333008    1.494347
     32          6           0       16.851349  -10.573460    0.608112
     33          6           0       18.362673   -8.634106    1.924467
     34          6           0       18.139022  -10.870602    1.039385
     35          6           0       18.901120   -9.903774    1.699848
     36          1           0       16.671608   -7.335096    1.667099
     37          1           0       16.267987  -11.342702    0.101344
     38          1           0       18.952435   -7.873135    2.436338
     39          1           0       18.551456  -11.864023    0.861002
     40          1           0       19.911066  -10.138441    2.037184
     41          6           0        7.230630   -9.288113    0.945244
     42          6           0        6.662535  -10.559136    0.729251
     43          6           0        6.472560   -8.324791    1.638601
     44          6           0        5.385488  -10.853979    1.192490
     45          6           0        5.196093   -8.623594    2.100711
     46          6           0        4.645814   -9.888968    1.880612
     47          1           0        7.228366  -11.326897    0.200827
     48          1           0        6.885762   -7.330238    1.808913
     49          1           0        4.963782  -11.844087    1.017439
     50          1           0        4.623885   -7.864119    2.634300
     51          1           0        3.644135  -10.121722    2.242992
 ---------------------------------------------------------------------

 Alpha  occ. eigenvalues --  -25.22353 -25.21535 -14.80502 -14.80501 -10.64082
 Alpha  occ. eigenvalues --  -10.60647 -10.60644 -10.60614 -10.60612 -10.59486
 Alpha  occ. eigenvalues --  -10.58074 -10.58071 -10.57918 -10.57186 -10.57185
 Alpha  occ. eigenvalues --  -10.57158 -10.57157 -10.57155 -10.57155 -10.56691
 Alpha  occ. eigenvalues --  -10.56691 -10.55859 -10.55858 -10.55799 -10.55798
 Alpha  occ. eigenvalues --  -10.55747 -10.55747 -10.55726 -10.55725 -10.55566
 Alpha  occ. eigenvalues --  -10.55565  -7.13691  -1.32439  -1.29179  -1.11757
 Alpha  occ. eigenvalues --   -1.09551  -0.99225  -0.96982  -0.96850  -0.93675
 Alpha  occ. eigenvalues --   -0.91070  -0.89962  -0.86732  -0.86009  -0.85445
 Alpha  occ. eigenvalues --   -0.84650  -0.84539  -0.84276  -0.80986  -0.77387
 Alpha  occ. eigenvalues --   -0.72615  -0.71211  -0.71053  -0.70238  -0.69781
 Alpha  occ. eigenvalues --   -0.68556  -0.67864  -0.65921  -0.65331  -0.64829
 Alpha  occ. eigenvalues --   -0.62339  -0.61623  -0.60974  -0.58610  -0.58311
 Alpha  occ. eigenvalues --   -0.57560  -0.57412  -0.55027  -0.54513  -0.53301
 Alpha  occ. eigenvalues --   -0.53163  -0.52565  -0.52328  -0.52141  -0.52084
 Alpha  occ. eigenvalues --   -0.51554  -0.50730  -0.49841  -0.49838  -0.49517
 Alpha  occ. eigenvalues --   -0.48680  -0.48649  -0.48170  -0.47757  -0.47172
 Alpha  occ. eigenvalues --   -0.46853  -0.46369  -0.46197  -0.46119  -0.45415
 Alpha  occ. eigenvalues --   -0.44530  -0.44448  -0.42827  -0.42453  -0.41267
 Alpha  occ. eigenvalues --   -0.40945  -0.40495  -0.39797  -0.39594  -0.38387
 Alpha  occ. eigenvalues --   -0.35867  -0.35105  -0.32763  -0.31539  -0.31364
 Alpha  occ. eigenvalues --   -0.31173  -0.29975  -0.27613  -0.24662
 Alpha virt. eigenvalues --   -0.10933   0.00019   0.00582   0.00760   0.01111
 Alpha virt. eigenvalues --    0.02182   0.02593   0.06995   0.08885   0.09373
 Alpha virt. eigenvalues --    0.10199   0.10619   0.11368   0.11480   0.12155

 Mulliken charges:
               1
     1  N   -0.166135
     2  C    0.110367
     3  C   -0.019636
     4  C   -0.108178
     5  C    0.136538
     6  C   -0.049193
     7  C    0.008531
     8  C   -0.001532
     9  C    0.008532
    10  C   -0.049181
    11  C    0.022005
    12  C   -0.000030
    13  C    0.136719
    14  C   -0.108343
    15  C   -0.019678
    16  C    0.110437
    17  N   -0.166162
    18  F   -0.231304
    19  B    0.191695
    20  F   -0.227351
    21  H    0.060267
    22  H    0.030082
    23  H    0.012025
    24  H    0.020466
    25  H    0.019893
    26  H    0.020477
    27  H    0.012118
    28  H    0.030185
    29  H    0.060306
    30  C    0.013286
    31  C   -0.032593
    32  C   -0.033589
    33  C    0.012215
    34  C    0.010550
    35  C    0.003632
    36  H    0.016846
    37  H    0.016953
    38  H    0.023271
    39  H    0.023408
    40  H    0.023909
    41  C    0.013467
    42  C   -0.033740
    43  C   -0.032674
    44  C    0.010636
    45  C    0.012267
    46  C    0.003721
    47  H    0.016998
    48  H    0.016886
    49  H    0.023416
    50  H    0.023283
    51  H    0.023930
 Sum of Mulliken charges =  -0.00000

 Dipole moment (field-independent basis, Debye):
    X=              0.0585    Y=              1.3439    Z=              5.1749  Tot=              5.3469
 Quadrupole moment (field-independent basis, Debye-Ang):
   XX=           -123.7448   YY=           -181.1744   ZZ=           -196.1983
   XY=             15.3450   XZ=             59.8958   YZ=            -40.4639

 Normal termination of Gaussian 16 at Mon Jan 31 19:01:48 2022.
