 Gaussian 16, Revision C.01,
 Gaussian 16:  ES64L-G16RevC.01  3-Jul-2019

 ----------------------------------------------------------------------
 #p m062x cc-pvdz scrf=(cpcm,solvent=DiMethylSulfoxide) td=(nstate=6,ro
 ot=1) opt=tight nosymm density=all int=ultrafine fchk
 ----------------------------------------------------------------------

 --------------------------------------
 BDP-PP-phenyl, optimized S1 in toluene
 --------------------------------------
 Symbolic Z-matrix:
 Charge =  0 Multiplicity = 1

 SCF Done:  E(RM062X) =  -1374.17143739     A.U. after   13 cycles
 Total Energy, E(TD-HF/TD-DFT) =  -1374.08973385
 SCF Done:  E(RM062X) =  -1374.17173111     A.U. after   10 cycles
 Total Energy, E(TD-HF/TD-DFT) =  -1374.08982355
 SCF Done:  E(RM062X) =  -1374.17187284     A.U. after    9 cycles
 Total Energy, E(TD-HF/TD-DFT) =  -1374.08983981
 SCF Done:  E(RM062X) =  -1374.17189999     A.U. after    8 cycles
 Total Energy, E(TD-HF/TD-DFT) =  -1374.08984204
 SCF Done:  E(RM062X) =  -1374.17191464     A.U. after    7 cycles
 Total Energy, E(TD-HF/TD-DFT) =  -1374.08984320
 SCF Done:  E(RM062X) =  -1374.17191959     A.U. after    7 cycles
 Total Energy, E(TD-HF/TD-DFT) =  -1374.08984371
 SCF Done:  E(RM062X) =  -1374.17191780     A.U. after    7 cycles
 Total Energy, E(TD-HF/TD-DFT) =  -1374.08984393
 SCF Done:  E(RM062X) =  -1374.17191986     A.U. after    7 cycles
 Total Energy, E(TD-HF/TD-DFT) =  -1374.08984427
 SCF Done:  E(RM062X) =  -1374.17192433     A.U. after    7 cycles
 Total Energy, E(TD-HF/TD-DFT) =  -1374.08984438
 SCF Done:  E(RM062X) =  -1374.17192914     A.U. after    7 cycles
 Total Energy, E(TD-HF/TD-DFT) =  -1374.08984444
 SCF Done:  E(RM062X) =  -1374.17193051     A.U. after    6 cycles
 Total Energy, E(TD-HF/TD-DFT) =  -1374.08984445
 SCF Done:  E(RM062X) =  -1374.17193026     A.U. after    5 cycles
 Total Energy, E(TD-HF/TD-DFT) =  -1374.08984447
 SCF Done:  E(RM062X) =  -1374.17192927     A.U. after    5 cycles
 Total Energy, E(TD-HF/TD-DFT) =  -1374.08984444
 SCF Done:  E(RM062X) =  -1374.17192869     A.U. after    4 cycles
 Total Energy, E(TD-HF/TD-DFT) =  -1374.08984450
 SCF Done:  E(RM062X) =  -1374.17192856     A.U. after    4 cycles
 Total Energy, E(TD-HF/TD-DFT) =  -1374.08984447
 SCF Done:  E(RM062X) =  -1374.17192744     A.U. after    5 cycles
 Total Energy, E(TD-HF/TD-DFT) =  -1374.08984443
 SCF Done:  E(RM062X) =  -1374.17192808     A.U. after    5 cycles

 Excitation energies and oscillator strengths:

 Excited state symmetry could not be determined.
 Excited State   1:      Singlet-?Sym    2.2336 eV  555.08 nm  f=0.8905  <S**2>=0.000
     109 ->110         0.69507
 This state for optimization and/or second-order correction.
 Total Energy, E(TD-HF/TD-DFT) =  -1374.08984450
 Copying the excited state density for this state as the 1-particle RhoCI density.

 Excited state symmetry could not be determined.
 Excited State   2:      Singlet-?Sym    3.2335 eV  383.44 nm  f=0.2340  <S**2>=0.000
     101 ->110        -0.12548
     108 ->110         0.68761

 Excited state symmetry could not be determined.
 Excited State   3:      Singlet-?Sym    3.5695 eV  347.35 nm  f=0.3009  <S**2>=0.000
     102 ->110        -0.14245
     105 ->110        -0.10487
     107 ->110         0.67732

 Excited state symmetry could not be determined.
 Excited State   4:      Singlet-?Sym    3.8073 eV  325.65 nm  f=0.2562  <S**2>=0.000
     104 ->110         0.62709
     106 ->110         0.29184

 Excited state symmetry could not be determined.
 Excited State   5:      Singlet-?Sym    4.1700 eV  297.32 nm  f=0.0091  <S**2>=0.000
     103 ->110         0.69430

 Excited state symmetry could not be determined.
 Excited State   6:      Singlet-?Sym    4.5394 eV  273.13 nm  f=0.0087  <S**2>=0.000
     104 ->110        -0.25597
     105 ->110        -0.30791
     106 ->110         0.54923

 Optimization completed.
    -- Stationary point found.

                          Input orientation:
 ---------------------------------------------------------------------
 Center     Atomic      Atomic             Coordinates (Angstroms)
 Number     Number       Type             X           Y           Z
 ---------------------------------------------------------------------
      1          7           0       12.647154   -9.458987   -0.966990
      2          6           0       13.653918   -9.876869   -1.730706
      3          6           0       14.380751   -8.758534   -2.235567
      4          6           0       13.738700   -7.613309   -1.723151
      5          6           0       12.672192   -8.047359   -0.916997
      6          6           0       10.523756   -5.153570   -0.167022
      7          6           0       10.508548   -3.762252   -0.113880
      8          6           0       11.698859   -3.051472    0.049446
      9          6           0       12.904940   -3.744315    0.163488
     10          6           0       12.924152   -5.136064    0.109648
     11          6           0       11.733259   -5.863107   -0.061234
     12          6           0       11.736877   -7.334989   -0.117475
     13          6           0       10.841122   -8.081957    0.696681
     14          6           0        9.977511   -7.677965    1.728938
     15          6           0        9.414718   -8.840092    2.293135
     16          6           0        9.963650   -9.937399    1.564902
     17          7           0       10.792860   -9.490164    0.624989
     18          9           0       12.012466  -11.519797    0.132668
     19          5           0       11.505195  -10.353812   -0.436581
     20          9           0       10.623430  -10.677911   -1.475649
     21          1           0       13.799932  -10.938738   -1.915467
     22          1           0       14.011770   -6.577876   -1.894320
     23          1           0        9.592377   -5.703382   -0.312588
     24          1           0        9.561383   -3.229842   -0.207953
     25          1           0       11.686123   -1.961919    0.090487
     26          1           0       13.838392   -3.198430    0.305190
     27          1           0       13.867683   -5.669739    0.231079
     28          1           0        9.832789   -6.651947    2.051111
     29          1           0        9.781233  -11.003757    1.676506
     30          6           0       15.537496   -8.826983   -3.114831
     31          6           0       16.092109   -7.651729   -3.660170
     32          6           0       16.132420  -10.062789   -3.441350
     33          6           0       17.197782   -7.711911   -4.499901
     34          6           0       17.238117  -10.118231   -4.281207
     35          6           0       17.776641   -8.944288   -4.814931
     36          1           0       15.646125   -6.684467   -3.427415
     37          1           0       15.731228  -10.988249   -3.027400
     38          1           0       17.611972   -6.792166   -4.913857
     39          1           0       17.685733  -11.083174   -4.520376
     40          1           0       18.644391   -8.989688   -5.473583
     41          6           0        8.469561   -8.943171    3.393920
     42          6           0        7.897555   -7.784560    3.956559
     43          6           0        8.104664  -10.196994    3.925461
     44          6           0        6.996035   -7.878152    5.010049
     45          6           0        7.202718  -10.285839    4.978730
     46          6           0        6.643818   -9.127998    5.526656
     47          1           0        8.157809   -6.804204    3.556562
     48          1           0        8.537652  -11.110035    3.515900
     49          1           0        6.561916   -6.971055    5.431442
     50          1           0        6.934158  -11.264263    5.377756
     51          1           0        5.936038   -9.199605    6.352953
 ---------------------------------------------------------------------

 Alpha  occ. eigenvalues --  -25.21972 -25.21417 -14.80901 -14.80884 -10.63082
 Alpha  occ. eigenvalues --  -10.61255 -10.61246 -10.60688 -10.60624 -10.58868
 Alpha  occ. eigenvalues --  -10.57515 -10.57465 -10.57464 -10.57449 -10.57305
 Alpha  occ. eigenvalues --  -10.57285 -10.57141 -10.57094 -10.56985 -10.56777
 Alpha  occ. eigenvalues --  -10.56761 -10.55995 -10.55980 -10.55908 -10.55894
 Alpha  occ. eigenvalues --  -10.55835 -10.55826 -10.55816 -10.55805 -10.55674
 Alpha  occ. eigenvalues --  -10.55662  -7.13853  -1.32177  -1.28798  -1.11850
 Alpha  occ. eigenvalues --   -1.09892  -0.98843  -0.97096  -0.96968  -0.93533
 Alpha  occ. eigenvalues --   -0.91304  -0.90279  -0.86447  -0.85631  -0.85505
 Alpha  occ. eigenvalues --   -0.84723  -0.84667  -0.84351  -0.81179  -0.77185
 Alpha  occ. eigenvalues --   -0.72742  -0.70934  -0.70833  -0.70279  -0.69970
 Alpha  occ. eigenvalues --   -0.68570  -0.67615  -0.66422  -0.65596  -0.65309
 Alpha  occ. eigenvalues --   -0.62314  -0.61117  -0.60758  -0.58364  -0.58149
 Alpha  occ. eigenvalues --   -0.57498  -0.57277  -0.54983  -0.54133  -0.53409
 Alpha  occ. eigenvalues --   -0.53257  -0.52773  -0.52287  -0.52241  -0.51784
 Alpha  occ. eigenvalues --   -0.51394  -0.51055  -0.50399  -0.49732  -0.49598
 Alpha  occ. eigenvalues --   -0.48802  -0.48761  -0.48155  -0.47465  -0.47239
 Alpha  occ. eigenvalues --   -0.46981  -0.46285  -0.45904  -0.45508  -0.45234
 Alpha  occ. eigenvalues --   -0.44779  -0.44574  -0.42565  -0.41983  -0.41402
 Alpha  occ. eigenvalues --   -0.41084  -0.40715  -0.39878  -0.39717  -0.38018
 Alpha  occ. eigenvalues --   -0.35847  -0.35483  -0.32308  -0.31716  -0.31465
 Alpha  occ. eigenvalues --   -0.31354  -0.30360  -0.28066  -0.25124
 Alpha virt. eigenvalues --   -0.09689  -0.00232   0.00342   0.00919   0.01173
 Alpha virt. eigenvalues --    0.02050   0.02403   0.05934   0.09579   0.10094
 Alpha virt. eigenvalues --    0.10286   0.10524   0.11718   0.12236   0.12506

 Mulliken charges:
               1
     1  N   -0.182760
     2  C    0.113015
     3  C   -0.008089
     4  C   -0.111929
     5  C    0.152597
     6  C   -0.008962
     7  C    0.002616
     8  C   -0.010335
     9  C    0.001527
    10  C   -0.014320
    11  C   -0.086461
    12  C    0.045211
    13  C    0.146024
    14  C   -0.103416
    15  C   -0.009871
    16  C    0.113167
    17  N   -0.178829
    18  F   -0.239740
    19  B    0.172284
    20  F   -0.233921
    21  H    0.065322
    22  H    0.023006
    23  H    0.012285
    24  H    0.022793
    25  H    0.021404
    26  H    0.022789
    27  H    0.015282
    28  H    0.022460
    29  H    0.064952
    30  C    0.008014
    31  C   -0.029079
    32  C   -0.030659
    33  C    0.013111
    34  C    0.010878
    35  C    0.005726
    36  H    0.018076
    37  H    0.016955
    38  H    0.023808
    39  H    0.024054
    40  H    0.024741
    41  C    0.008832
    42  C   -0.029213
    43  C   -0.030908
    44  C    0.013047
    45  C    0.010966
    46  C    0.005534
    47  H    0.018288
    48  H    0.017074
    49  H    0.023891
    50  H    0.024016
    51  H    0.024747
 Sum of Mulliken charges =  -0.00000

 Dipole moment (field-independent basis, Debye):
    X=              1.3952    Y=              4.1714    Z=              1.7323  Tot=              4.7273
 Quadrupole moment (field-independent basis, Debye-Ang):
   XX=           -115.6740   YY=           -233.4948   ZZ=           -163.4486
   XY=             34.8040   XZ=            -17.1177   YZ=            -18.2520

 Normal termination of Gaussian 16 at Mon Jan 31 17:54:18 2022.
