 Gaussian 16, Revision C.01,
 Gaussian 16:  ES64L-G16RevC.01  3-Jul-2019

 ----------------------------------------------------------------------
 #p m062x cc-pvdz scrf=(cpcm,solvent=TetraHydroFuran) td=(nstate=6,root
 =1) opt=tight nosymm density=all int=ultrafine fchk
 ----------------------------------------------------------------------

 --------------------------------------
 BDP-PP-phenyl, optimized R1 in toluene
 --------------------------------------
 Symbolic Z-matrix:
 Charge =  0 Multiplicity = 1

 SCF Done:  E(RM062X) =  -1374.14637324     A.U. after   13 cycles
 Total Energy, E(TD-HF/TD-DFT) =  -1374.08113257
 SCF Done:  E(RM062X) =  -1374.14696678     A.U. after   11 cycles
 Total Energy, E(TD-HF/TD-DFT) =  -1374.08119644
 SCF Done:  E(RM062X) =  -1374.14701126     A.U. after   10 cycles
 Total Energy, E(TD-HF/TD-DFT) =  -1374.08120942
 SCF Done:  E(RM062X) =  -1374.14712697     A.U. after    8 cycles
 Total Energy, E(TD-HF/TD-DFT) =  -1374.08121561
 SCF Done:  E(RM062X) =  -1374.14715399     A.U. after    7 cycles
 Total Energy, E(TD-HF/TD-DFT) =  -1374.08121599
 SCF Done:  E(RM062X) =  -1374.14716477     A.U. after    7 cycles
 Total Energy, E(TD-HF/TD-DFT) =  -1374.08121623
 SCF Done:  E(RM062X) =  -1374.14715785     A.U. after    6 cycles
 Total Energy, E(TD-HF/TD-DFT) =  -1374.08121631
 SCF Done:  E(RM062X) =  -1374.14715474     A.U. after    6 cycles
 Total Energy, E(TD-HF/TD-DFT) =  -1374.08121637
 SCF Done:  E(RM062X) =  -1374.14715104     A.U. after    7 cycles
 Total Energy, E(TD-HF/TD-DFT) =  -1374.08121650
 SCF Done:  E(RM062X) =  -1374.14714718     A.U. after    7 cycles
 Total Energy, E(TD-HF/TD-DFT) =  -1374.08121657
 SCF Done:  E(RM062X) =  -1374.14714075     A.U. after    7 cycles
 Total Energy, E(TD-HF/TD-DFT) =  -1374.08121661
 SCF Done:  E(RM062X) =  -1374.14713629     A.U. after    6 cycles
 Total Energy, E(TD-HF/TD-DFT) =  -1374.08121660
 SCF Done:  E(RM062X) =  -1374.14713448     A.U. after    5 cycles
 Total Energy, E(TD-HF/TD-DFT) =  -1374.08121663
 SCF Done:  E(RM062X) =  -1374.14713402     A.U. after    5 cycles
 Total Energy, E(TD-HF/TD-DFT) =  -1374.08121658
 SCF Done:  E(RM062X) =  -1374.14713311     A.U. after    5 cycles
 Total Energy, E(TD-HF/TD-DFT) =  -1374.08121664
 SCF Done:  E(RM062X) =  -1374.14713247     A.U. after    6 cycles
 Total Energy, E(TD-HF/TD-DFT) =  -1374.08121667
 SCF Done:  E(RM062X) =  -1374.14713208     A.U. after    5 cycles
 Total Energy, E(TD-HF/TD-DFT) =  -1374.08121660
 SCF Done:  E(RM062X) =  -1374.14713235     A.U. after    5 cycles
 Total Energy, E(TD-HF/TD-DFT) =  -1374.08121667
 SCF Done:  E(RM062X) =  -1374.14713280     A.U. after    5 cycles
 Total Energy, E(TD-HF/TD-DFT) =  -1374.08121668
 SCF Done:  E(RM062X) =  -1374.14713288     A.U. after    5 cycles

 Excitation energies and oscillator strengths:

 Excited state symmetry could not be determined.
 Excited State   1:      Singlet-?Sym    1.7937 eV  691.23 nm  f=0.5042  <S**2>=0.000
     109 ->110         0.69520
 This state for optimization and/or second-order correction.
 Total Energy, E(TD-HF/TD-DFT) =  -1374.08121667
 Copying the excited state density for this state as the 1-particle RhoCI density.

 Excited state symmetry could not be determined.
 Excited State   2:      Singlet-?Sym    2.7784 eV  446.24 nm  f=0.4075  <S**2>=0.000
     101 ->110        -0.11063
     108 ->110         0.68733

 Excited state symmetry could not be determined.
 Excited State   3:      Singlet-?Sym    3.0745 eV  403.27 nm  f=0.1129  <S**2>=0.000
     102 ->110        -0.13907
     107 ->110         0.68211

 Excited state symmetry could not be determined.
 Excited State   4:      Singlet-?Sym    3.3932 eV  365.39 nm  f=0.3312  <S**2>=0.000
     101 ->110         0.11062
     104 ->110         0.54679
     106 ->110         0.41632

 Excited state symmetry could not be determined.
 Excited State   5:      Singlet-?Sym    3.8598 eV  321.22 nm  f=0.0454  <S**2>=0.000
     103 ->110         0.69446

 Excited state symmetry could not be determined.
 Excited State   6:      Singlet-?Sym    4.2474 eV  291.90 nm  f=0.0023  <S**2>=0.000
     104 ->110        -0.41758
     106 ->110         0.55533

 Optimization completed.
    -- Stationary point found.

                          Input orientation:
 ---------------------------------------------------------------------
 Center     Atomic      Atomic             Coordinates (Angstroms)
 Number     Number       Type             X           Y           Z
 ---------------------------------------------------------------------
      1          7           0       12.947399   -9.198859   -0.645498
      2          6           0       14.102725   -9.812933   -0.415539
      3          6           0       14.937041   -8.980917    0.385654
      4          6           0       14.193281   -7.809733    0.635138
      5          6           0       12.956200   -7.939857   -0.013082
      6          6           0       10.551565   -4.950722    0.124771
      7          6           0       10.558785   -3.564458    0.213717
      8          6           0       11.763428   -2.859867    0.259855
      9          6           0       12.964412   -3.567685    0.179239
     10          6           0       12.965387   -4.953960    0.090238
     11          6           0       11.757296   -5.692580    0.095829
     12          6           0       11.754009   -7.140331   -0.003201
     13          6           0       10.549987   -7.936944    0.018163
     14          6           0        9.330306   -7.804230    0.698116
     15          6           0        8.577447   -8.973434    0.467228
     16          6           0        9.388797   -9.806971   -0.355707
     17          7           0       10.539348   -9.195673   -0.614908
     18          9           0       11.729834  -11.102830   -1.498129
     19          5           0       11.732261   -9.716197   -1.452301
     20          9           0       11.716813   -9.156530   -2.728044
     21          1           0       14.294144  -10.796887   -0.836455
     22          1           0       14.482227   -6.985166    1.277557
     23          1           0        9.595812   -5.462111    0.040993
     24          1           0        9.609928   -3.027349    0.234402
     25          1           0       11.765908   -1.772180    0.331828
     26          1           0       13.914887   -3.033093    0.172505
     27          1           0       13.917007   -5.467947   -0.020744
     28          1           0        9.059906   -6.979363    1.348130
     29          1           0        9.184370  -10.790292   -0.771987
     30          6           0       16.285648   -9.301987    0.833133
     31          6           0       17.066280   -8.340252    1.503022
     32          6           0       16.839801  -10.578348    0.612713
     33          6           0       18.350391   -8.645535    1.938630
     34          6           0       18.124458  -10.879831    1.049410
     35          6           0       18.886312   -9.916253    1.714739
     36          1           0       16.664162   -7.341482    1.675095
     37          1           0       16.256166  -11.345007    0.102359
     38          1           0       18.939961   -7.886959    2.454301
     39          1           0       18.534839  -11.874212    0.871547
     40          1           0       19.894026  -10.154281    2.056378
     41          6           0        7.240061   -9.291710    0.949022
     42          6           0        6.675879  -10.565257    0.737994
     43          6           0        6.480605   -8.330215    1.643231
     44          6           0        5.401906  -10.864178    1.206578
     45          6           0        5.207156   -8.632944    2.110771
     46          6           0        4.660982   -9.900765    1.895446
     47          1           0        7.243298  -11.331787    0.209477
     48          1           0        6.890658   -7.333674    1.809381
     49          1           0        4.983499  -11.856357    1.035276
     50          1           0        4.633935   -7.874565    2.644868
     51          1           0        3.661584  -10.136689    2.262061
 ---------------------------------------------------------------------

 Alpha  occ. eigenvalues --  -25.22060 -25.21209 -14.80356 -14.80355 -10.64034
 Alpha  occ. eigenvalues --  -10.60540 -10.60538 -10.60534 -10.60531 -10.59556
 Alpha  occ. eigenvalues --  -10.58189 -10.58187 -10.58076 -10.57316 -10.57312
 Alpha  occ. eigenvalues --  -10.57118 -10.57117 -10.57095 -10.57095 -10.56605
 Alpha  occ. eigenvalues --  -10.56605 -10.55804 -10.55803 -10.55765 -10.55765
 Alpha  occ. eigenvalues --  -10.55704 -10.55704 -10.55691 -10.55691 -10.55528
 Alpha  occ. eigenvalues --  -10.55527  -7.13448  -1.32147  -1.28894  -1.11644
 Alpha  occ. eigenvalues --   -1.09438  -0.99319  -0.96925  -0.96793  -0.93692
 Alpha  occ. eigenvalues --   -0.90982  -0.89877  -0.86820  -0.86055  -0.85437
 Alpha  occ. eigenvalues --   -0.84611  -0.84497  -0.84215  -0.80914  -0.77377
 Alpha  occ. eigenvalues --   -0.72538  -0.71300  -0.71058  -0.70193  -0.69739
 Alpha  occ. eigenvalues --   -0.68541  -0.67797  -0.65845  -0.65279  -0.64774
 Alpha  occ. eigenvalues --   -0.62277  -0.61710  -0.60766  -0.58554  -0.58228
 Alpha  occ. eigenvalues --   -0.57416  -0.57340  -0.54991  -0.54538  -0.53219
 Alpha  occ. eigenvalues --   -0.53136  -0.52551  -0.52269  -0.52113  -0.52022
 Alpha  occ. eigenvalues --   -0.51471  -0.50722  -0.49810  -0.49790  -0.49480
 Alpha  occ. eigenvalues --   -0.48656  -0.48608  -0.48123  -0.47556  -0.47140
 Alpha  occ. eigenvalues --   -0.46793  -0.46308  -0.46120  -0.45860  -0.45364
 Alpha  occ. eigenvalues --   -0.44419  -0.44359  -0.42964  -0.42329  -0.41333
 Alpha  occ. eigenvalues --   -0.40917  -0.40458  -0.39769  -0.39555  -0.38382
 Alpha  occ. eigenvalues --   -0.35767  -0.34997  -0.32898  -0.31528  -0.31301
 Alpha  occ. eigenvalues --   -0.31136  -0.29894  -0.27533  -0.24557
 Alpha virt. eigenvalues --   -0.10925   0.00093   0.00624   0.00676   0.01086
 Alpha virt. eigenvalues --    0.02245   0.02635   0.07126   0.08915   0.09221
 Alpha virt. eigenvalues --    0.10122   0.10566   0.11383   0.11444   0.12100

 Mulliken charges:
               1
     1  N   -0.165575
     2  C    0.108684
     3  C   -0.018861
     4  C   -0.107298
     5  C    0.136583
     6  C   -0.047243
     7  C    0.009927
     8  C   -0.000447
     9  C    0.009924
    10  C   -0.047238
    11  C    0.023332
    12  C    0.002692
    13  C    0.136700
    14  C   -0.107410
    15  C   -0.018887
    16  C    0.108717
    17  N   -0.165604
    18  F   -0.230124
    19  B    0.193574
    20  F   -0.223295
    21  H    0.058009
    22  H    0.027515
    23  H    0.011414
    24  H    0.018592
    25  H    0.018102
    26  H    0.018602
    27  H    0.011503
    28  H    0.027591
    29  H    0.058029
    30  C    0.015590
    31  C   -0.031308
    32  C   -0.032290
    33  C    0.013395
    34  C    0.011841
    35  C    0.004376
    36  H    0.014548
    37  H    0.015054
    38  H    0.021325
    39  H    0.021632
    40  H    0.022007
    41  C    0.015675
    42  C   -0.032383
    43  C   -0.031329
    44  C    0.011883
    45  C    0.013418
    46  C    0.004414
    47  H    0.015084
    48  H    0.014569
    49  H    0.021638
    50  H    0.021336
    51  H    0.022019
 Sum of Mulliken charges =  -0.00000

 Dipole moment (field-independent basis, Debye):
    X=              0.0621    Y=              1.3346    Z=              5.0606  Tot=              5.2340
 Quadrupole moment (field-independent basis, Debye-Ang):
   XX=           -125.6343   YY=           -181.4751   ZZ=           -196.1614
   XY=             15.1853   XZ=             58.5818   YZ=            -39.5837

 Normal termination of Gaussian 16 at Tue Feb  1 16:17:54 2022.
