 Gaussian 16, Revision C.01,
 Gaussian 16:  ES64L-G16RevC.01  3-Jul-2019

 ----------------------------------------------------------------------
 #p m062x cc-pvdz scrf=(cpcm,solvent=n,n-DiMethylFormamide) td=(nstate=
 6,root=1) opt=tight nosymm density=all int=ultrafine fchk
 ----------------------------------------------------------------------

 --------------------------------------
 BDP-PP-phenyl, optimized S1 in toluene
 --------------------------------------
 Symbolic Z-matrix:
 Charge =  0 Multiplicity = 1

 SCF Done:  E(RM062X) =  -1374.17132701     A.U. after   13 cycles
 Total Energy, E(TD-HF/TD-DFT) =  -1374.08957021
 SCF Done:  E(RM062X) =  -1374.17161630     A.U. after   10 cycles
 Total Energy, E(TD-HF/TD-DFT) =  -1374.08965727
 SCF Done:  E(RM062X) =  -1374.17175636     A.U. after    9 cycles
 Total Energy, E(TD-HF/TD-DFT) =  -1374.08967306
 SCF Done:  E(RM062X) =  -1374.17178309     A.U. after    8 cycles
 Total Energy, E(TD-HF/TD-DFT) =  -1374.08967524
 SCF Done:  E(RM062X) =  -1374.17179753     A.U. after    7 cycles
 Total Energy, E(TD-HF/TD-DFT) =  -1374.08967636
 SCF Done:  E(RM062X) =  -1374.17180234     A.U. after    7 cycles
 Total Energy, E(TD-HF/TD-DFT) =  -1374.08967685
 SCF Done:  E(RM062X) =  -1374.17180051     A.U. after    7 cycles
 Total Energy, E(TD-HF/TD-DFT) =  -1374.08967707
 SCF Done:  E(RM062X) =  -1374.17180248     A.U. after    7 cycles
 Total Energy, E(TD-HF/TD-DFT) =  -1374.08967739
 SCF Done:  E(RM062X) =  -1374.17180676     A.U. after    7 cycles
 Total Energy, E(TD-HF/TD-DFT) =  -1374.08967749
 SCF Done:  E(RM062X) =  -1374.17181130     A.U. after    6 cycles
 Total Energy, E(TD-HF/TD-DFT) =  -1374.08967753
 SCF Done:  E(RM062X) =  -1374.17181257     A.U. after    5 cycles
 Total Energy, E(TD-HF/TD-DFT) =  -1374.08967753
 SCF Done:  E(RM062X) =  -1374.17181234     A.U. after    5 cycles
 Total Energy, E(TD-HF/TD-DFT) =  -1374.08967757
 SCF Done:  E(RM062X) =  -1374.17181139     A.U. after    5 cycles
 Total Energy, E(TD-HF/TD-DFT) =  -1374.08967755
 SCF Done:  E(RM062X) =  -1374.17181420     A.U. after    6 cycles
 Total Energy, E(TD-HF/TD-DFT) =  -1374.08967754
 SCF Done:  E(RM062X) =  -1374.17181053     A.U. after    6 cycles
 Total Energy, E(TD-HF/TD-DFT) =  -1374.08967759
 SCF Done:  E(RM062X) =  -1374.17181026     A.U. after    5 cycles
 Total Energy, E(TD-HF/TD-DFT) =  -1374.08967754
 SCF Done:  E(RM062X) =  -1374.17181026     A.U. after    3 cycles
 Total Energy, E(TD-HF/TD-DFT) =  -1374.08967761
 SCF Done:  E(RM062X) =  -1374.17181032     A.U. after    4 cycles

 Excitation energies and oscillator strengths:

 Excited state symmetry could not be determined.
 Excited State   1:      Singlet-?Sym    2.2349 eV  554.75 nm  f=0.8883  <S**2>=0.000
     109 ->110         0.69513
 This state for optimization and/or second-order correction.
 Total Energy, E(TD-HF/TD-DFT) =  -1374.08967756
 Copying the excited state density for this state as the 1-particle RhoCI density.

 Excited state symmetry could not be determined.
 Excited State   2:      Singlet-?Sym    3.2338 eV  383.40 nm  f=0.2324  <S**2>=0.000
     101 ->110        -0.12563
     108 ->110         0.68770

 Excited state symmetry could not be determined.
 Excited State   3:      Singlet-?Sym    3.5699 eV  347.30 nm  f=0.3014  <S**2>=0.000
     102 ->110        -0.14238
     105 ->110        -0.10472
     107 ->110         0.67741

 Excited state symmetry could not be determined.
 Excited State   4:      Singlet-?Sym    3.8090 eV  325.50 nm  f=0.2563  <S**2>=0.000
     104 ->110         0.62866
     106 ->110         0.28870

 Excited state symmetry could not be determined.
 Excited State   5:      Singlet-?Sym    4.1722 eV  297.17 nm  f=0.0091  <S**2>=0.000
     103 ->110         0.69429

 Excited state symmetry could not be determined.
 Excited State   6:      Singlet-?Sym    4.5394 eV  273.13 nm  f=0.0086  <S**2>=0.000
     104 ->110        -0.25331
     105 ->110        -0.30745
     106 ->110         0.55073

 Optimization completed.
    -- Stationary point found.

                          Input orientation:
 ---------------------------------------------------------------------
 Center     Atomic      Atomic             Coordinates (Angstroms)
 Number     Number       Type             X           Y           Z
 ---------------------------------------------------------------------
      1          7           0       12.646685   -9.458835   -0.967444
      2          6           0       13.653568   -9.876827   -1.730919
      3          6           0       14.380658   -8.758596   -2.235537
      4          6           0       13.738609   -7.613272   -1.723212
      5          6           0       12.671918   -8.047220   -0.917329
      6          6           0       10.523508   -5.153407   -0.166911
      7          6           0       10.508317   -3.762103   -0.113655
      8          6           0       11.698655   -3.051334    0.049507
      9          6           0       12.904747   -3.744195    0.163268
     10          6           0       12.923953   -5.135931    0.109291
     11          6           0       11.733030   -5.862975   -0.061434
     12          6           0       11.736595   -7.334809   -0.117821
     13          6           0       10.840778   -8.081820    0.696270
     14          6           0        9.977502   -7.677921    1.728771
     15          6           0        9.414705   -8.840131    2.292917
     16          6           0        9.963323   -9.937335    1.564353
     17          7           0       10.792321   -9.489999    0.624325
     18          9           0       12.011125  -11.519891    0.131209
     19          5           0       11.504315  -10.353541   -0.437609
     20          9           0       10.622543  -10.676691   -1.476863
     21          1           0       13.799345  -10.938710   -1.915762
     22          1           0       14.011854   -6.577872   -1.894290
     23          1           0        9.592120   -5.703225   -0.312385
     24          1           0        9.561139   -3.229682   -0.207532
     25          1           0       11.685929   -1.961785    0.090640
     26          1           0       13.838223   -3.198324    0.304879
     27          1           0       13.867485   -5.669634    0.230567
     28          1           0        9.833072   -6.651958    2.051246
     29          1           0        9.780842  -11.003701    1.675720
     30          6           0       15.537563   -8.827103   -3.114559
     31          6           0       16.092057   -7.651942   -3.660215
     32          6           0       16.132804  -10.062900   -3.440537
     33          6           0       17.197896   -7.712199   -4.499712
     34          6           0       17.238663  -10.118424   -4.280160
     35          6           0       17.777058   -8.944567   -4.814199
     36          1           0       15.645793   -6.684701   -3.427917
     37          1           0       15.731724  -10.988272   -3.026284
     38          1           0       17.611975   -6.792521   -4.913928
     39          1           0       17.686518  -11.083362   -4.518900
     40          1           0       18.644939   -8.990029   -5.472674
     41          6           0        8.469816   -8.943249    3.393902
     42          6           0        7.897897   -7.784676    3.956708
     43          6           0        8.105065  -10.197087    3.925511
     44          6           0        6.996622   -7.878312    5.010394
     45          6           0        7.203366  -10.285982    4.978974
     46          6           0        6.644556   -9.128172    5.527054
     47          1           0        8.158028   -6.804314    3.556648
     48          1           0        8.538014  -11.110092    3.515832
     49          1           0        6.562569   -6.971236    5.431905
     50          1           0        6.934927  -11.264422    5.378045
     51          1           0        5.936965   -9.199818    6.353510
 ---------------------------------------------------------------------

 Alpha  occ. eigenvalues --  -25.21957 -25.21400 -14.80894 -14.80877 -10.63080
 Alpha  occ. eigenvalues --  -10.61249 -10.61240 -10.60684 -10.60620 -10.58872
 Alpha  occ. eigenvalues --  -10.57512 -10.57469 -10.57461 -10.57454 -10.57302
 Alpha  occ. eigenvalues --  -10.57282 -10.57137 -10.57090 -10.56993 -10.56784
 Alpha  occ. eigenvalues --  -10.56768 -10.55993 -10.55977 -10.55907 -10.55892
 Alpha  occ. eigenvalues --  -10.55834 -10.55824 -10.55815 -10.55804 -10.55673
 Alpha  occ. eigenvalues --  -10.55661  -7.13841  -1.32163  -1.28783  -1.11845
 Alpha  occ. eigenvalues --   -1.09887  -0.98847  -0.97094  -0.96966  -0.93533
 Alpha  occ. eigenvalues --   -0.91299  -0.90275  -0.86447  -0.85633  -0.85508
 Alpha  occ. eigenvalues --   -0.84722  -0.84665  -0.84349  -0.81175  -0.77184
 Alpha  occ. eigenvalues --   -0.72739  -0.70933  -0.70835  -0.70278  -0.69969
 Alpha  occ. eigenvalues --   -0.68568  -0.67614  -0.66419  -0.65592  -0.65307
 Alpha  occ. eigenvalues --   -0.62311  -0.61120  -0.60749  -0.58360  -0.58141
 Alpha  occ. eigenvalues --   -0.57494  -0.57274  -0.54981  -0.54134  -0.53405
 Alpha  occ. eigenvalues --   -0.53256  -0.52769  -0.52287  -0.52240  -0.51782
 Alpha  occ. eigenvalues --   -0.51390  -0.51046  -0.50398  -0.49738  -0.49597
 Alpha  occ. eigenvalues --   -0.48801  -0.48760  -0.48151  -0.47454  -0.47236
 Alpha  occ. eigenvalues --   -0.46978  -0.46281  -0.45890  -0.45504  -0.45233
 Alpha  occ. eigenvalues --   -0.44776  -0.44570  -0.42557  -0.41989  -0.41407
 Alpha  occ. eigenvalues --   -0.41084  -0.40714  -0.39877  -0.39715  -0.38017
 Alpha  occ. eigenvalues --   -0.35842  -0.35478  -0.32314  -0.31718  -0.31462
 Alpha  occ. eigenvalues --   -0.31352  -0.30356  -0.28062  -0.25119
 Alpha virt. eigenvalues --   -0.09687  -0.00228   0.00345   0.00916   0.01167
 Alpha virt. eigenvalues --    0.02053   0.02406   0.05940   0.09572   0.10098
 Alpha virt. eigenvalues --    0.10283   0.10520   0.11719   0.12232   0.12504

 Mulliken charges:
               1
     1  N   -0.182719
     2  C    0.112971
     3  C   -0.008053
     4  C   -0.111881
     5  C    0.152623
     6  C   -0.008926
     7  C    0.002672
     8  C   -0.010286
     9  C    0.001580
    10  C   -0.014303
    11  C   -0.086392
    12  C    0.045319
    13  C    0.145991
    14  C   -0.103359
    15  C   -0.009848
    16  C    0.113127
    17  N   -0.178771
    18  F   -0.239648
    19  B    0.172335
    20  F   -0.233734
    21  H    0.065211
    22  H    0.022898
    23  H    0.012264
    24  H    0.022698
    25  H    0.021303
    26  H    0.022687
    27  H    0.015235
    28  H    0.022376
    29  H    0.064840
    30  C    0.008116
    31  C   -0.028998
    32  C   -0.030573
    33  C    0.013164
    34  C    0.010938
    35  C    0.005759
    36  H    0.017974
    37  H    0.016865
    38  H    0.023707
    39  H    0.023963
    40  H    0.024641
    41  C    0.008945
    42  C   -0.029132
    43  C   -0.030824
    44  C    0.013105
    45  C    0.011029
    46  C    0.005573
    47  H    0.018186
    48  H    0.016986
    49  H    0.023791
    50  H    0.023926
    51  H    0.024649
 Sum of Mulliken charges =  -0.00000

 Dipole moment (field-independent basis, Debye):
    X=              1.3946    Y=              4.1644    Z=              1.7332  Tot=              4.7214
 Quadrupole moment (field-independent basis, Debye-Ang):
   XX=           -115.7388   YY=           -233.4063   ZZ=           -163.4847
   XY=             34.7225   XZ=            -17.0649   YZ=            -18.2627

 Normal termination of Gaussian 16 at Mon Jan 31 18:04:57 2022.
