 Gaussian 09, Revision D.01,
 Gaussian 09:  EM64L-G09RevD.01 24-Apr-2013

 ----------------------------------------------------------------------
 #p m062x cc-pvdz scrf=(cpcm,solvent=Toluene) td=(nstate=6,root=1) opt=
 tight nosymm density=all int=ultrafine fchk
 ----------------------------------------------------------------------

 --------------------------------------
 BODIPY-phenyl with phenyls, initial R1
 --------------------------------------
 Symbolic Z-matrix:
 Charge =  0 Multiplicity = 1

 SCF Done:  E(RM062X) =  -1374.12641193     A.U. after   14 cycles
 SCF Done:  E(RM062X) =  -1374.13149465     A.U. after   13 cycles
 SCF Done:  E(RM062X) =  -1374.13529665     A.U. after   14 cycles
 SCF Done:  E(RM062X) =  -1374.13213728     A.U. after   15 cycles
 SCF Done:  E(RM062X) =  -1374.13776107     A.U. after   15 cycles
 SCF Done:  E(RM062X) =  -1374.13867450     A.U. after   11 cycles
 SCF Done:  E(RM062X) =  -1374.13930025     A.U. after   12 cycles
 SCF Done:  E(RM062X) =  -1374.13957547     A.U. after   11 cycles
 SCF Done:  E(RM062X) =  -1374.14032113     A.U. after   12 cycles
 SCF Done:  E(RM062X) =  -1374.14074976     A.U. after   10 cycles
 SCF Done:  E(RM062X) =  -1374.14067413     A.U. after    6 cycles
 SCF Done:  E(RM062X) =  -1374.14067491     A.U. after    6 cycles
 SCF Done:  E(RM062X) =  -1374.14067598     A.U. after    5 cycles
 SCF Done:  E(RM062X) =  -1374.14067562     A.U. after    5 cycles
 SCF Done:  E(RM062X) =  -1374.14067556     A.U. after    4 cycles
 SCF Done:  E(RM062X) =  -1374.14067529     A.U. after    3 cycles
 SCF Done:  E(RM062X) =  -1374.14067521     A.U. after    4 cycles
 SCF Done:  E(RM062X) =  -1374.14067524     A.U. after    3 cycles
 SCF Done:  E(RM062X) =  -1374.14067529     A.U. after    4 cycles
 SCF Done:  E(RM062X) =  -1374.14067521     A.U. after    3 cycles

 Excitation energies and oscillator strengths:

 Excited state symmetry could not be determined.
 Excited State   1:      Singlet-?Sym    1.8067 eV  686.23 nm  f=0.4274  <S**2>=0.000
     109 ->110         0.69726
 This state for optimization and/or second-order correction.
 Total Energy, E(TD-HF/TD-KS) =  -1374.07427886
 Copying the excited state density for this state as the 1-particle RhoCI density.

 Excited state symmetry could not be determined.
 Excited State   2:      Singlet-?Sym    2.7814 eV  445.76 nm  f=0.2887  <S**2>=0.000
     101 ->110        -0.11979
     108 ->110         0.69254

 Excited state symmetry could not be determined.
 Excited State   3:      Singlet-?Sym    3.0457 eV  407.08 nm  f=0.1144  <S**2>=0.000
     102 ->110        -0.13507
     107 ->110         0.68455

 Excited state symmetry could not be determined.
 Excited State   4:      Singlet-?Sym    3.4344 eV  361.01 nm  f=0.3505  <S**2>=0.000
     101 ->110         0.10295
     104 ->110         0.61334
     106 ->110         0.32254

 Excited state symmetry could not be determined.
 Excited State   5:      Singlet-?Sym    3.9506 eV  313.83 nm  f=0.0363  <S**2>=0.000
     103 ->110         0.69188

 Excited state symmetry could not be determined.
 Excited State   6:      Singlet-?Sym    4.2124 eV  294.33 nm  f=0.0012  <S**2>=0.000
     104 ->110        -0.32151
     106 ->110         0.61911

 Optimization completed.
    -- Stationary point found.

                          Input orientation:
 ---------------------------------------------------------------------
 Center     Atomic      Atomic             Coordinates (Angstroms)
 Number     Number       Type             X           Y           Z
 ---------------------------------------------------------------------
      1          7           0       12.945495   -9.174412   -0.679183
      2          6           0       14.092112   -9.799842   -0.436560
      3          6           0       14.921122   -8.980550    0.380030
      4          6           0       14.181846   -7.803357    0.627113
      5          6           0       12.955204   -7.921139   -0.037781
      6          6           0       10.550196   -4.933348    0.106292
      7          6           0       10.557751   -3.548462    0.203967
      8          6           0       11.762738   -2.844497    0.255645
      9          6           0       12.964232   -3.551316    0.170888
     10          6           0       12.965839   -4.936211    0.073125
     11          6           0       11.756912   -5.674888    0.074155
     12          6           0       11.753822   -7.118209   -0.027018
     13          6           0       10.550601   -7.918360   -0.006596
     14          6           0        9.341922   -7.798056    0.689929
     15          6           0        8.593491   -8.973265    0.461283
     16          6           0        9.399142   -9.794053   -0.376936
     17          7           0       10.540639   -9.171330   -0.648696
     18          9           0       11.729325  -11.066300   -1.557376
     19          5           0       11.731838   -9.681291   -1.499920
     20          9           0       11.716587   -9.100669   -2.761279
     21          1           0       14.279872  -10.781493   -0.863932
     22          1           0       14.465943   -6.985240    1.280090
     23          1           0        9.596038   -5.447170    0.016440
     24          1           0        9.609417   -3.010424    0.225776
     25          1           0       11.765089   -1.757224    0.333630
     26          1           0       13.914059   -3.015500    0.166440
     27          1           0       13.915973   -5.452313   -0.042773
     28          1           0        9.076724   -6.979521    1.350250
     29          1           0        9.198265  -10.775168   -0.799536
     30          6           0       16.261984   -9.311568    0.841745
     31          6           0       17.047392   -8.354070    1.511655
     32          6           0       16.804937  -10.595026    0.636028
     33          6           0       18.324017   -8.669587    1.960955
     34          6           0       18.081955  -10.907098    1.086208
     35          6           0       18.848294   -9.947157    1.751233
     36          1           0       16.654251   -7.349732    1.671466
     37          1           0       16.216128  -11.358916    0.127430
     38          1           0       18.917216   -7.913511    2.476214
     39          1           0       18.483020  -11.907252    0.919624
     40          1           0       19.850327  -10.193439    2.103589
     41          6           0        7.264162   -9.301392    0.957008
     42          6           0        6.710301  -10.581301    0.758278
     43          6           0        6.501042   -8.344682    1.653369
     44          6           0        5.444286  -10.890665    1.240246
     45          6           0        5.235403   -8.657499    2.134492
     46          6           0        4.700043   -9.931480    1.931050
     47          1           0        7.281854  -11.344612    0.229513
     48          1           0        6.902777   -7.343117    1.809108
     49          1           0        5.034503  -11.888042    1.078327
     50          1           0        4.659458   -7.902060    2.669901
     51          1           0        3.706572  -10.175574    2.308294
 ---------------------------------------------------------------------

 Alpha  occ. eigenvalues --  -25.21379 -25.20442 -14.80020 -14.80018 -10.63931
 Alpha  occ. eigenvalues --  -10.60354 -10.60351 -10.60304 -10.60300 -10.59731
 Alpha  occ. eigenvalues --  -10.58468 -10.58466 -10.58451 -10.57693 -10.57689
 Alpha  occ. eigenvalues --  -10.56964 -10.56961 -10.56956 -10.56955 -10.56413
 Alpha  occ. eigenvalues --  -10.56411 -10.55684 -10.55682 -10.55682 -10.55680
 Alpha  occ. eigenvalues --  -10.55612 -10.55610 -10.55597 -10.55595 -10.55437
 Alpha  occ. eigenvalues --  -10.55436  -7.12880  -1.31465  -1.28231  -1.11389
 Alpha  occ. eigenvalues --   -1.09178  -0.99550  -0.96790  -0.96659  -0.93746
 Alpha  occ. eigenvalues --   -0.90778  -0.89680  -0.87069  -0.86170  -0.85388
 Alpha  occ. eigenvalues --   -0.84518  -0.84397  -0.84073  -0.80754  -0.77372
 Alpha  occ. eigenvalues --   -0.72373  -0.71537  -0.71075  -0.70082  -0.69639
 Alpha  occ. eigenvalues --   -0.68517  -0.67632  -0.65676  -0.65159  -0.64653
 Alpha  occ. eigenvalues --   -0.62137  -0.61929  -0.60300  -0.58536  -0.58045
 Alpha  occ. eigenvalues --   -0.57185  -0.56978  -0.54915  -0.54639  -0.53076
 Alpha  occ. eigenvalues --   -0.53032  -0.52593  -0.52125  -0.52039  -0.51850
 Alpha  occ. eigenvalues --   -0.51281  -0.50872  -0.49648  -0.49633  -0.49370
 Alpha  occ. eigenvalues --   -0.48602  -0.48511  -0.48034  -0.47162  -0.47115
 Alpha  occ. eigenvalues --   -0.46610  -0.46133  -0.45933  -0.45279  -0.45168
 Alpha  occ. eigenvalues --   -0.44143  -0.44131  -0.43274  -0.42166  -0.41387
 Alpha  occ. eigenvalues --   -0.40849  -0.40344  -0.39709  -0.39457  -0.38384
 Alpha  occ. eigenvalues --   -0.35528  -0.34738  -0.33221  -0.31520  -0.31148
 Alpha  occ. eigenvalues --   -0.31024  -0.29708  -0.27348  -0.24322
 Alpha virt. eigenvalues --   -0.10919   0.00253   0.00336   0.00859   0.01031
 Alpha virt. eigenvalues --    0.02397   0.02741   0.07416   0.08804   0.08980
 Alpha virt. eigenvalues --    0.09911   0.10380   0.11334   0.11385   0.12023

 Mulliken charges:
               1
     1  N   -0.164300
     2  C    0.104695
     3  C   -0.016697
     4  C   -0.104805
     5  C    0.136658
     6  C   -0.042902
     7  C    0.013554
     8  C    0.002269
     9  C    0.013556
    10  C   -0.042886
    11  C    0.026425
    12  C    0.008443
    13  C    0.136767
    14  C   -0.104930
    15  C   -0.016732
    16  C    0.104748
    17  N   -0.164301
    18  F   -0.226818
    19  B    0.198145
    20  F   -0.213321
    21  H    0.052391
    22  H    0.021239
    23  H    0.009653
    24  H    0.013840
    25  H    0.013513
    26  H    0.013845
    27  H    0.009686
    28  H    0.021265
    29  H    0.052410
    30  C    0.020968
    31  C   -0.027785
    32  C   -0.028778
    33  C    0.016490
    34  C    0.015123
    35  C    0.006405
    36  H    0.008694
    37  H    0.010185
    38  H    0.016458
    39  H    0.017147
    40  H    0.017238
    41  C    0.021127
    42  C   -0.028888
    43  C   -0.027848
    44  C    0.015184
    45  C    0.016553
    46  C    0.006479
    47  H    0.010229
    48  H    0.008719
    49  H    0.017157
    50  H    0.016472
    51  H    0.017261
 Sum of Mulliken charges =   0.00000

 Dipole moment (field-independent basis, Debye):
    X=              0.0543    Y=              1.2660    Z=              4.7916  Tot=              4.9564
 Quadrupole moment (field-independent basis, Debye-Ang):
   XX=           -130.3995   YY=           -181.4846   ZZ=           -196.1227
   XY=             14.4561   XZ=             55.4829   YZ=            -37.5809

 Normal termination of Gaussian 09 at Wed Apr 22 12:07:41 2020.
