 Gaussian 16, Revision C.01,
 Gaussian 16:  ES64L-G16RevC.01  3-Jul-2019

 ----------------------------------------------------------------------
 #p m062x cc-pvdz scrf=(cpcm,solvent=Acetone) td=(nstate=6,root=1) opt=
 tight nosymm density=all int=ultrafine fchk
 ----------------------------------------------------------------------

 --------------------------------------
 BDP-PP-phenyl, optimized S1 in toluene
 --------------------------------------
 Symbolic Z-matrix:
 Charge =  0 Multiplicity = 1

 SCF Done:  E(RM062X) =  -1374.17088968     A.U. after   13 cycles
 Total Energy, E(TD-HF/TD-DFT) =  -1374.08892291
 SCF Done:  E(RM062X) =  -1374.17116143     A.U. after   10 cycles
 Total Energy, E(TD-HF/TD-DFT) =  -1374.08899991
 SCF Done:  E(RM062X) =  -1374.17129475     A.U. after    9 cycles
 Total Energy, E(TD-HF/TD-DFT) =  -1374.08901392
 SCF Done:  E(RM062X) =  -1374.17131982     A.U. after    7 cycles
 Total Energy, E(TD-HF/TD-DFT) =  -1374.08901596
 SCF Done:  E(RM062X) =  -1374.17133347     A.U. after    7 cycles
 Total Energy, E(TD-HF/TD-DFT) =  -1374.08901686
 SCF Done:  E(RM062X) =  -1374.17133777     A.U. after    7 cycles
 Total Energy, E(TD-HF/TD-DFT) =  -1374.08901730
 SCF Done:  E(RM062X) =  -1374.17133582     A.U. after    7 cycles
 Total Energy, E(TD-HF/TD-DFT) =  -1374.08901747
 SCF Done:  E(RM062X) =  -1374.17133735     A.U. after    7 cycles
 Total Energy, E(TD-HF/TD-DFT) =  -1374.08901774
 SCF Done:  E(RM062X) =  -1374.17134106     A.U. after    7 cycles
 Total Energy, E(TD-HF/TD-DFT) =  -1374.08901782
 SCF Done:  E(RM062X) =  -1374.17134457     A.U. after    6 cycles
 Total Energy, E(TD-HF/TD-DFT) =  -1374.08901785
 SCF Done:  E(RM062X) =  -1374.17134566     A.U. after    5 cycles
 Total Energy, E(TD-HF/TD-DFT) =  -1374.08901785
 SCF Done:  E(RM062X) =  -1374.17134530     A.U. after    5 cycles
 Total Energy, E(TD-HF/TD-DFT) =  -1374.08901785
 SCF Done:  E(RM062X) =  -1374.17134455     A.U. after    5 cycles
 Total Energy, E(TD-HF/TD-DFT) =  -1374.08901784
 SCF Done:  E(RM062X) =  -1374.17134613     A.U. after    6 cycles
 Total Energy, E(TD-HF/TD-DFT) =  -1374.08901784
 SCF Done:  E(RM062X) =  -1374.17134373     A.U. after    5 cycles
 Total Energy, E(TD-HF/TD-DFT) =  -1374.08901781
 SCF Done:  E(RM062X) =  -1374.17134369     A.U. after    4 cycles
 Total Energy, E(TD-HF/TD-DFT) =  -1374.08901786
 SCF Done:  E(RM062X) =  -1374.17134370     A.U. after    4 cycles
 Total Energy, E(TD-HF/TD-DFT) =  -1374.08901784
 SCF Done:  E(RM062X) =  -1374.17134361     A.U. after    4 cycles
 Total Energy, E(TD-HF/TD-DFT) =  -1374.08901786
 SCF Done:  E(RM062X) =  -1374.17134368     A.U. after    4 cycles

 Excitation energies and oscillator strengths:

 Excited state symmetry could not be determined.
 Excited State   1:      Singlet-?Sym    2.2402 eV  553.45 nm  f=0.8796  <S**2>=0.000
     109 ->110         0.69534
 This state for optimization and/or second-order correction.
 Total Energy, E(TD-HF/TD-DFT) =  -1374.08901783
 Copying the excited state density for this state as the 1-particle RhoCI density.

 Excited state symmetry could not be determined.
 Excited State   2:      Singlet-?Sym    3.2349 eV  383.27 nm  f=0.2260  <S**2>=0.000
     101 ->110        -0.12623
     108 ->110         0.68804

 Excited state symmetry could not be determined.
 Excited State   3:      Singlet-?Sym    3.5716 eV  347.14 nm  f=0.3035  <S**2>=0.000
     102 ->110        -0.14209
     105 ->110        -0.10416
     107 ->110         0.67775

 Excited state symmetry could not be determined.
 Excited State   4:      Singlet-?Sym    3.8159 eV  324.92 nm  f=0.2567  <S**2>=0.000
     104 ->110         0.63435
     106 ->110         0.27696

 Excited state symmetry could not be determined.
 Excited State   5:      Singlet-?Sym    4.1808 eV  296.56 nm  f=0.0090  <S**2>=0.000
     103 ->110         0.69426

 Excited state symmetry could not be determined.
 Excited State   6:      Singlet-?Sym    4.5391 eV  273.15 nm  f=0.0083  <S**2>=0.000
     104 ->110        -0.24340
     105 ->110        -0.30549
     106 ->110         0.55633

 Optimization completed.
    -- Stationary point found.

                          Input orientation:
 ---------------------------------------------------------------------
 Center     Atomic      Atomic             Coordinates (Angstroms)
 Number     Number       Type             X           Y           Z
 ---------------------------------------------------------------------
      1          7           0       12.644886   -9.458239   -0.969180
      2          6           0       13.652240   -9.876665   -1.731709
      3          6           0       14.380301   -8.758837   -2.235416
      4          6           0       13.738240   -7.613122   -1.723465
      5          6           0       12.670851   -8.046673   -0.918618
      6          6           0       10.522563   -5.152754   -0.166409
      7          6           0       10.507458   -3.761506   -0.112691
      8          6           0       11.697909   -3.050795    0.049807
      9          6           0       12.904042   -3.743739    0.162438
     10          6           0       12.923208   -5.135421    0.107903
     11          6           0       11.732156   -5.862459   -0.062191
     12          6           0       11.735499   -7.334102   -0.119164
     13          6           0       10.839435   -8.081288    0.694661
     14          6           0        9.977482   -7.677755    1.728127
     15          6           0        9.414639   -8.840292    2.292052
     16          6           0        9.962008   -9.937086    1.562177
     17          7           0       10.790185   -9.489356    0.621703
     18          9           0       12.005917  -11.520232    0.125576
     19          5           0       11.500903  -10.352489   -0.441611
     20          9           0       10.619160  -10.671970   -1.481616
     21          1           0       13.797104  -10.938600   -1.916842
     22          1           0       14.012152   -6.577854   -1.894215
     23          1           0        9.591133   -5.702586   -0.311511
     24          1           0        9.560228   -3.229030   -0.205769
     25          1           0       11.685237   -1.961260    0.091321
     26          1           0       13.837616   -3.197931    0.303676
     27          1           0       13.866739   -5.669248    0.228551
     28          1           0        9.834220   -6.652006    2.051800
     29          1           0        9.779269  -11.003484    1.672593
     30          6           0       15.537813   -8.827573   -3.113509
     31          6           0       16.091720   -7.652792   -3.660567
     32          6           0       16.134403  -10.063313   -3.437232
     33          6           0       17.198199   -7.713342   -4.499156
     34          6           0       17.240883  -10.119155   -4.275951
     35          6           0       17.778653   -8.945653   -4.811377
     36          1           0       15.644265   -6.685650   -3.430169
     37          1           0       15.733857  -10.988324   -3.021657
     38          1           0       17.611745   -6.793937   -4.914519
     39          1           0       17.689767  -11.084061   -4.512896
     40          1           0       18.647041   -8.991356   -5.469170
     41          6           0        8.470787   -8.943556    3.393803
     42          6           0        7.899225   -7.785129    3.957277
     43          6           0        8.106579  -10.197455    3.925663
     44          6           0        6.998907   -7.878935    5.011726
     45          6           0        7.205843  -10.286542    4.979879
     46          6           0        6.647407   -9.128851    5.528576
     47          1           0        8.158899   -6.804749    3.556980
     48          1           0        8.539358  -11.110323    3.515507
     49          1           0        6.565130   -6.971941    5.433706
     50          1           0        6.937860  -11.265044    5.379110
     51          1           0        5.940555   -9.200646    6.355653
 ---------------------------------------------------------------------

 Alpha  occ. eigenvalues --  -25.21899 -25.21335 -14.80865 -14.80848 -10.63070
 Alpha  occ. eigenvalues --  -10.61228 -10.61219 -10.60669 -10.60604 -10.58888
 Alpha  occ. eigenvalues --  -10.57500 -10.57492 -10.57475 -10.57448 -10.57290
 Alpha  occ. eigenvalues --  -10.57269 -10.57121 -10.57073 -10.57022 -10.56813
 Alpha  occ. eigenvalues --  -10.56797 -10.55984 -10.55968 -10.55902 -10.55886
 Alpha  occ. eigenvalues --  -10.55828 -10.55817 -10.55810 -10.55799 -10.55668
 Alpha  occ. eigenvalues --  -10.55655  -7.13790  -1.32104  -1.28725  -1.11822
 Alpha  occ. eigenvalues --   -1.09865  -0.98863  -0.97084  -0.96956  -0.93535
 Alpha  occ. eigenvalues --   -0.91282  -0.90258  -0.86449  -0.85642  -0.85521
 Alpha  occ. eigenvalues --   -0.84717  -0.84659  -0.84338  -0.81162  -0.77180
 Alpha  occ. eigenvalues --   -0.72725  -0.70930  -0.70845  -0.70276  -0.69963
 Alpha  occ. eigenvalues --   -0.68562  -0.67609  -0.66405  -0.65579  -0.65299
 Alpha  occ. eigenvalues --   -0.62300  -0.61134  -0.60710  -0.58344  -0.58112
 Alpha  occ. eigenvalues --   -0.57476  -0.57262  -0.54977  -0.54138  -0.53389
 Alpha  occ. eigenvalues --   -0.53252  -0.52754  -0.52285  -0.52236  -0.51772
 Alpha  occ. eigenvalues --   -0.51374  -0.51013  -0.50390  -0.49761  -0.49593
 Alpha  occ. eigenvalues --   -0.48797  -0.48757  -0.48135  -0.47414  -0.47223
 Alpha  occ. eigenvalues --   -0.46966  -0.46261  -0.45839  -0.45486  -0.45229
 Alpha  occ. eigenvalues --   -0.44763  -0.44552  -0.42525  -0.42013  -0.41428
 Alpha  occ. eigenvalues --   -0.41080  -0.40707  -0.39872  -0.39709  -0.38011
 Alpha  occ. eigenvalues --   -0.35822  -0.35458  -0.32338  -0.31727  -0.31452
 Alpha  occ. eigenvalues --   -0.31344  -0.30342  -0.28046  -0.25100
 Alpha virt. eigenvalues --   -0.09678  -0.00215   0.00359   0.00905   0.01145
 Alpha virt. eigenvalues --    0.02064   0.02415   0.05961   0.09544   0.10112
 Alpha virt. eigenvalues --    0.10272   0.10506   0.11721   0.12213   0.12496

 Mulliken charges:
               1
     1  N   -0.182562
     2  C    0.112798
     3  C   -0.007900
     4  C   -0.111686
     5  C    0.152722
     6  C   -0.008787
     7  C    0.002895
     8  C   -0.010090
     9  C    0.001793
    10  C   -0.014238
    11  C   -0.086122
    12  C    0.045747
    13  C    0.145860
    14  C   -0.103133
    15  C   -0.009751
    16  C    0.112972
    17  N   -0.178549
    18  F   -0.239282
    19  B    0.172534
    20  F   -0.232995
    21  H    0.064768
    22  H    0.022473
    23  H    0.012175
    24  H    0.022320
    25  H    0.020901
    26  H    0.022282
    27  H    0.015044
    28  H    0.022043
    29  H    0.064395
    30  C    0.008515
    31  C   -0.028673
    32  C   -0.030230
    33  C    0.013376
    34  C    0.011176
    35  C    0.005889
    36  H    0.017571
    37  H    0.016509
    38  H    0.023306
    39  H    0.023604
    40  H    0.024245
    41  C    0.009390
    42  C   -0.028811
    43  C   -0.030492
    44  C    0.013334
    45  C    0.011279
    46  C    0.005730
    47  H    0.017782
    48  H    0.016640
    49  H    0.023396
    50  H    0.023571
    51  H    0.024263
 Sum of Mulliken charges =  -0.00000

 Dipole moment (field-independent basis, Debye):
    X=              1.3921    Y=              4.1370    Z=              1.7369  Tot=              4.6978
 Quadrupole moment (field-independent basis, Debye-Ang):
   XX=           -116.0025   YY=           -233.0593   ZZ=           -163.6264
   XY=             34.4051   XZ=            -16.8585   YZ=            -18.3046

 Normal termination of Gaussian 16 at Wed Feb  2 00:44:09 2022.
