 Gaussian 16, Revision C.01,
 Gaussian 16:  ES64L-G16RevC.01  3-Jul-2019

 ----------------------------------------------------------------------
 #p m062x cc-pvdz scrf=(cpcm,solvent=TetraHydroFuran) td=(nstate=6,root
 =1) opt=tight nosymm density=all int=ultrafine fchk
 ----------------------------------------------------------------------

 --------------------------------------
 BDP-PP-phenyl, optimized S1 in toluene
 --------------------------------------
 Symbolic Z-matrix:
 Charge =  0 Multiplicity = 1

 SCF Done:  E(RM062X) =  -1374.16920388     A.U. after   13 cycles
 Total Energy, E(TD-HF/TD-DFT) =  -1374.08644332
 SCF Done:  E(RM062X) =  -1374.16940844     A.U. after    9 cycles
 Total Energy, E(TD-HF/TD-DFT) =  -1374.08648752
 SCF Done:  E(RM062X) =  -1374.16951424     A.U. after    9 cycles
 Total Energy, E(TD-HF/TD-DFT) =  -1374.08649564
 SCF Done:  E(RM062X) =  -1374.16953303     A.U. after    7 cycles
 Total Energy, E(TD-HF/TD-DFT) =  -1374.08649688
 SCF Done:  E(RM062X) =  -1374.16954364     A.U. after    7 cycles
 Total Energy, E(TD-HF/TD-DFT) =  -1374.08649741
 SCF Done:  E(RM062X) =  -1374.16954636     A.U. after    7 cycles
 Total Energy, E(TD-HF/TD-DFT) =  -1374.08649764
 SCF Done:  E(RM062X) =  -1374.16954426     A.U. after    7 cycles
 Total Energy, E(TD-HF/TD-DFT) =  -1374.08649772
 SCF Done:  E(RM062X) =  -1374.16954518     A.U. after    7 cycles
 Total Energy, E(TD-HF/TD-DFT) =  -1374.08649785
 SCF Done:  E(RM062X) =  -1374.16954686     A.U. after    6 cycles
 Total Energy, E(TD-HF/TD-DFT) =  -1374.08649785
 SCF Done:  E(RM062X) =  -1374.16954838     A.U. after    6 cycles
 Total Energy, E(TD-HF/TD-DFT) =  -1374.08649788
 Total Energy, E(TD-HF/TD-DFT) =  -1374.08649789
 Total Energy, E(TD-HF/TD-DFT) =  -1374.08649793
 Total Energy, E(TD-HF/TD-DFT) =  -1374.08649788
 Total Energy, E(TD-HF/TD-DFT) =  -1374.08649786
 Total Energy, E(TD-HF/TD-DFT) =  -1374.08649787
 Total Energy, E(TD-HF/TD-DFT) =  -1374.08649786
 Total Energy, E(TD-HF/TD-DFT) =  -1374.08649794
 Total Energy, E(TD-HF/TD-DFT) =  -1374.08649789
 Total Energy, E(TD-HF/TD-DFT) =  -1374.08649790
 Total Energy, E(TD-HF/TD-DFT) =  -1374.08649786
 Total Energy, E(TD-HF/TD-DFT) =  -1374.08649791
 Total Energy, E(TD-HF/TD-DFT) =  -1374.08649780
 SCF Done:  E(RM062X) =  -1374.16954740     A.U. after    5 cycles
 Total Energy, E(TD-HF/TD-DFT) =  -1374.08649788
 SCF Done:  E(RM062X) =  -1374.16954750     A.U. after    3 cycles
 Total Energy, E(TD-HF/TD-DFT) =  -1374.08649795
 SCF Done:  E(RM062X) =  -1374.16954737     A.U. after    4 cycles
 Total Energy, E(TD-HF/TD-DFT) =  -1374.08649791
 SCF Done:  E(RM062X) =  -1374.16954747     A.U. after    3 cycles
 Total Energy, E(TD-HF/TD-DFT) =  -1374.08649784
 SCF Done:  E(RM062X) =  -1374.16954743     A.U. after    3 cycles
 Total Energy, E(TD-HF/TD-DFT) =  -1374.08649793
 SCF Done:  E(RM062X) =  -1374.16954739     A.U. after    3 cycles
 Total Energy, E(TD-HF/TD-DFT) =  -1374.08649784
 SCF Done:  E(RM062X) =  -1374.16954750     A.U. after    3 cycles
 Total Energy, E(TD-HF/TD-DFT) =  -1374.08649798
 SCF Done:  E(RM062X) =  -1374.16954744     A.U. after    3 cycles
 Total Energy, E(TD-HF/TD-DFT) =  -1374.08649784
 SCF Done:  E(RM062X) =  -1374.16954757     A.U. after    3 cycles
 Total Energy, E(TD-HF/TD-DFT) =  -1374.08649799
 SCF Done:  E(RM062X) =  -1374.16954749     A.U. after    4 cycles

 Excitation energies and oscillator strengths:

 Excited state symmetry could not be determined.
 Excited State   1:      Singlet-?Sym    2.2599 eV  548.63 nm  f=0.8462  <S**2>=0.000
     109 ->110         0.69606
 This state for optimization and/or second-order correction.
 Total Energy, E(TD-HF/TD-DFT) =  -1374.08649789
 Copying the excited state density for this state as the 1-particle RhoCI density.

 Excited state symmetry could not be determined.
 Excited State   2:      Singlet-?Sym    3.2384 eV  382.86 nm  f=0.2032  <S**2>=0.000
     101 ->110        -0.12834
     108 ->110         0.68911

 Excited state symmetry could not be determined.
 Excited State   3:      Singlet-?Sym    3.5781 eV  346.51 nm  f=0.3112  <S**2>=0.000
     102 ->110        -0.14091
     105 ->110        -0.10198
     107 ->110         0.67893

 Excited state symmetry could not be determined.
 Excited State   4:      Singlet-?Sym    3.8420 eV  322.71 nm  f=0.2571  <S**2>=0.000
     104 ->110         0.65038
     106 ->110         0.24049

 Excited state symmetry could not be determined.
 Excited State   5:      Singlet-?Sym    4.2129 eV  294.30 nm  f=0.0085  <S**2>=0.000
     103 ->110         0.69397

 Excited state symmetry could not be determined.
 Excited State   6:      Singlet-?Sym    4.5376 eV  273.24 nm  f=0.0070  <S**2>=0.000
     104 ->110        -0.21425
     105 ->110        -0.29027
     106 ->110         0.57651

 Optimization completed on the basis of negligible forces.
    -- Stationary point found.

                          Input orientation:
 ---------------------------------------------------------------------
 Center     Atomic      Atomic             Coordinates (Angstroms)
 Number     Number       Type             X           Y           Z
 ---------------------------------------------------------------------
      1          7           0       12.639110   -9.456192   -0.974622
      2          6           0       13.648107   -9.876122   -1.733858
      3          6           0       14.379198   -8.759733   -2.234785
      4          6           0       13.736917   -7.612621   -1.724283
      5          6           0       12.667335   -8.044805   -0.922849
      6          6           0       10.519242   -5.150559   -0.164574
      7          6           0       10.504381   -3.759518   -0.109328
      8          6           0       11.695195   -3.048929    0.050694
      9          6           0       12.901501   -3.742100    0.159278
     10          6           0       12.920591   -5.133576    0.102860
     11          6           0       11.729114   -5.860701   -0.064843
     12          6           0       11.731794   -7.331633   -0.123717
     13          6           0       10.834862   -8.079471    0.689185
     14          6           0        9.977415   -7.677212    1.725818
     15          6           0        9.414499   -8.840953    2.289115
     16          6           0        9.957828   -9.936275    1.554986
     17          7           0       10.783124   -9.487143    0.612955
     18          9           0       11.988985  -11.521099    0.107408
     19          5           0       11.489768  -10.349117   -0.454766
     20          9           0       10.608471  -10.656514   -1.497216
     21          1           0       13.789985  -10.938263   -1.919658
     22          1           0       14.012772   -6.577783   -1.894310
     23          1           0        9.587704   -5.700520   -0.308323
     24          1           0        9.556943   -3.226897   -0.199580
     25          1           0       11.682659   -1.959444    0.093482
     26          1           0       13.835400   -3.196452    0.299113
     27          1           0       13.864131   -5.667817    0.221293
     28          1           0        9.838074   -6.652200    2.053501
     29          1           0        9.774515  -11.002812    1.662225
     30          6           0       15.538646   -8.829169   -3.109843
     31          6           0       16.091040   -7.655648   -3.661062
     32          6           0       16.139227  -10.064751   -3.426717
     33          6           0       17.199581   -7.717178   -4.496687
     34          6           0       17.247703  -10.121675   -4.262476
     35          6           0       17.783848   -8.949326   -4.801964
     36          1           0       15.639999   -6.688811   -3.436498
     37          1           0       15.739990  -10.988558   -3.007230
     38          1           0       17.611699   -6.798657   -4.915448
     39          1           0       17.699596  -11.086518   -4.493955
     40          1           0       18.653876   -8.995846   -5.457539
     41          6           0        8.474120   -8.944623    3.393379
     42          6           0        7.903953   -7.786663    3.959243
     43          6           0        8.111443  -10.198707    3.925928
     44          6           0        7.006809   -7.880989    5.016197
     45          6           0        7.213905  -10.288401    4.982605
     46          6           0        6.656945   -9.131078    5.533511
     47          1           0        8.162313   -6.806235    3.558273
     48          1           0        8.543472  -11.111122    3.514014
     49          1           0        6.574132   -6.974240    5.439860
     50          1           0        6.947229  -11.267110    5.382231
     51          1           0        5.952535   -9.203340    6.362636
 ---------------------------------------------------------------------

 Alpha  occ. eigenvalues --  -25.21677 -25.21084 -14.80756 -14.80740 -10.63035
 Alpha  occ. eigenvalues --  -10.61150 -10.61138 -10.60612 -10.60543 -10.58946
 Alpha  occ. eigenvalues --  -10.57577 -10.57555 -10.57454 -10.57397 -10.57245
 Alpha  occ. eigenvalues --  -10.57221 -10.57134 -10.57061 -10.57009 -10.56923
 Alpha  occ. eigenvalues --  -10.56905 -10.55951 -10.55932 -10.55881 -10.55862
 Alpha  occ. eigenvalues --  -10.55807 -10.55793 -10.55791 -10.55777 -10.55648
 Alpha  occ. eigenvalues --  -10.55632  -7.13599  -1.31882  -1.28503  -1.11738
 Alpha  occ. eigenvalues --   -1.09782  -0.98923  -0.97046  -0.96918  -0.93543
 Alpha  occ. eigenvalues --   -0.91219  -0.90197  -0.86461  -0.85677  -0.85565
 Alpha  occ. eigenvalues --   -0.84698  -0.84634  -0.84298  -0.81110  -0.77166
 Alpha  occ. eigenvalues --   -0.72674  -0.70923  -0.70888  -0.70266  -0.69942
 Alpha  occ. eigenvalues --   -0.68542  -0.67589  -0.66354  -0.65530  -0.65268
 Alpha  occ. eigenvalues --   -0.62260  -0.61188  -0.60565  -0.58283  -0.58026
 Alpha  occ. eigenvalues --   -0.57388  -0.57215  -0.54960  -0.54158  -0.53330
 Alpha  occ. eigenvalues --   -0.53236  -0.52697  -0.52286  -0.52216  -0.51734
 Alpha  occ. eigenvalues --   -0.51316  -0.50891  -0.50365  -0.49845  -0.49579
 Alpha  occ. eigenvalues --   -0.48783  -0.48745  -0.48076  -0.47277  -0.47174
 Alpha  occ. eigenvalues --   -0.46908  -0.46187  -0.45659  -0.45424  -0.45204
 Alpha  occ. eigenvalues --   -0.44704  -0.44484  -0.42407  -0.42102  -0.41508
 Alpha  occ. eigenvalues --   -0.41067  -0.40681  -0.39856  -0.39684  -0.37992
 Alpha  occ. eigenvalues --   -0.35747  -0.35380  -0.32427  -0.31762  -0.31411
 Alpha  occ. eigenvalues --   -0.31312  -0.30290  -0.27987  -0.25029
 Alpha virt. eigenvalues --   -0.09645  -0.00169   0.00412   0.00861   0.01061
 Alpha virt. eigenvalues --    0.02107   0.02451   0.06042   0.09434   0.10153
 Alpha virt. eigenvalues --    0.10238   0.10447   0.11733   0.12139   0.12455

 Mulliken charges:
               1
     1  N   -0.181999
     2  C    0.112143
     3  C   -0.007313
     4  C   -0.110924
     5  C    0.153126
     6  C   -0.008293
     7  C    0.003774
     8  C   -0.009318
     9  C    0.002646
    10  C   -0.013977
    11  C   -0.085108
    12  C    0.047354
    13  C    0.145418
    14  C   -0.102293
    15  C   -0.009350
    16  C    0.112355
    17  N   -0.177730
    18  F   -0.237880
    19  B    0.173287
    20  F   -0.230148
    21  H    0.063073
    22  H    0.020830
    23  H    0.011807
    24  H    0.020855
    25  H    0.019351
    26  H    0.020722
    27  H    0.014275
    28  H    0.020768
    29  H    0.062683
    30  C    0.010091
    31  C   -0.027461
    32  C   -0.028950
    33  C    0.014231
    34  C    0.012129
    35  C    0.006435
    36  H    0.016017
    37  H    0.015121
    38  H    0.021766
    39  H    0.022214
    40  H    0.022723
    41  C    0.011115
    42  C   -0.027586
    43  C   -0.029232
    44  C    0.014249
    45  C    0.012268
    46  C    0.006364
    47  H    0.016223
    48  H    0.015290
    49  H    0.021878
    50  H    0.022202
    51  H    0.022779
 Sum of Mulliken charges =  -0.00000

 Dipole moment (field-independent basis, Debye):
    X=              1.3766    Y=              4.0347    Z=              1.7440  Tot=              4.6060
 Quadrupole moment (field-independent basis, Debye-Ang):
   XX=           -117.1306   YY=           -231.7880   ZZ=           -164.1507
   XY=             33.2890   XZ=            -16.1567   YZ=            -18.3900

 Normal termination of Gaussian 16 at Tue Feb  1 17:37:33 2022.
