 Gaussian 09, Revision D.01,
 Gaussian 09:  EM64L-G09RevD.01 24-Apr-2013

 ----------------------------------------------------------------------
 #p m062x cc-pvdz scrf=(cpcm,solvent=Toluene) td=(nstate=6,root=1) opt=
 tight nosymm density=all int=ultrafine fchk
 ----------------------------------------------------------------------

 --------------------------------------
 BODIPY-phenyl with phenyls, initial S1
 --------------------------------------
 Symbolic Z-matrix:
 Charge =  0 Multiplicity = 1

 SCF Done:  E(RM062X) =  -1374.14805163     A.U. after   13 cycles
 SCF Done:  E(RM062X) =  -1374.15405337     A.U. after   12 cycles
 SCF Done:  E(RM062X) =  -1374.15536435     A.U. after   11 cycles
 SCF Done:  E(RM062X) =  -1374.15660388     A.U. after   11 cycles
 SCF Done:  E(RM062X) =  -1374.09473631     A.U. after   13 cycles
 SCF Done:  E(RM062X) =  -1374.15647919     A.U. after    7 cycles
 SCF Done:  E(RM062X) =  -1374.15911842     A.U. after   13 cycles
 SCF Done:  E(RM062X) =  -1374.08358209     A.U. after   13 cycles
 SCF Done:  E(RM062X) =  -1374.15952774     A.U. after    8 cycles
 SCF Done:  E(RM062X) =  -1374.15968031     A.U. after   13 cycles
 SCF Done:  E(RM062X) =  -1374.16386186     A.U. after    7 cycles
 SCF Done:  E(RM062X) =  -1374.16386047     A.U. after    6 cycles
 SCF Done:  E(RM062X) =  -1374.16385961     A.U. after    6 cycles
 SCF Done:  E(RM062X) =  -1374.16385912     A.U. after    4 cycles
 SCF Done:  E(RM062X) =  -1374.16385921     A.U. after    4 cycles
 SCF Done:  E(RM062X) =  -1374.16385920     A.U. after    3 cycles
 SCF Done:  E(RM062X) =  -1374.16385925     A.U. after    4 cycles
 SCF Done:  E(RM062X) =  -1374.16385919     A.U. after    3 cycles
 SCF Done:  E(RM062X) =  -1374.16385914     A.U. after    4 cycles
 SCF Done:  E(RM062X) =  -1374.16385919     A.U. after    3 cycles

 Excitation energies and oscillator strengths:

 Excited state symmetry could not be determined.
 Excited State   1:      Singlet-?Sym    2.3160 eV  535.33 nm  f=0.7416  <S**2>=0.000
     109 ->110         0.69745
 This state for optimization and/or second-order correction.
 Total Energy, E(TD-HF/TD-KS) =  -1374.07874699
 Copying the excited state density for this state as the 1-particle RhoCI density.

 Excited state symmetry could not be determined.
 Excited State   2:      Singlet-?Sym    3.2422 eV  382.40 nm  f=0.1473  <S**2>=0.000
     101 ->110         0.13345
     108 ->110        -0.69048

 Excited state symmetry could not be determined.
 Excited State   3:      Singlet-?Sym    3.5967 eV  344.71 nm  f=0.3326  <S**2>=0.000
     102 ->110         0.13677
     107 ->110        -0.68158

 Excited state symmetry could not be determined.
 Excited State   4:      Singlet-?Sym    3.9200 eV  316.28 nm  f=0.2498  <S**2>=0.000
     104 ->110         0.67205
     106 ->110        -0.17781

 Excited state symmetry could not be determined.
 Excited State   5:      Singlet-?Sym    4.3052 eV  287.99 nm  f=0.0070  <S**2>=0.000
     103 ->110         0.69207

 Excited state symmetry could not be determined.
 Excited State   6:      Singlet-?Sym    4.5298 eV  273.71 nm  f=0.0038  <S**2>=0.000
     104 ->110         0.17131
     105 ->110         0.11596
     106 ->110         0.64927

 Optimization completed.
    -- Stationary point found.

                          Input orientation:
 ---------------------------------------------------------------------
 Center     Atomic      Atomic             Coordinates (Angstroms)
 Number     Number       Type             X           Y           Z
 ---------------------------------------------------------------------
      1          7           0       12.623665   -9.450596   -0.988748
      2          6           0       13.637669   -9.874871   -1.738346
      3          6           0       14.376168   -8.762702   -2.232625
      4          6           0       13.732638   -7.611554   -1.726879
      5          6           0       12.657312   -8.039898   -0.934616
      6          6           0       10.509762   -5.144387   -0.159713
      7          6           0       10.495791   -3.753987   -0.099626
      8          6           0       11.687620   -3.043892    0.053677
      9          6           0       12.894234   -3.737873    0.150576
     10          6           0       12.912919   -5.128692    0.088397
     11          6           0       11.720226   -5.855997   -0.072835
     12          6           0       11.721025   -7.324811   -0.137039
     13          6           0       10.821572   -8.074644    0.673244
     14          6           0        9.976586   -7.675934    1.718207
     15          6           0        9.414160   -8.843339    2.280691
     16          6           0        9.947154   -9.934331    1.535849
     17          7           0       10.763890   -9.481042    0.588972
     18          9           0       11.944013  -11.522445    0.059407
     19          5           0       11.459866  -10.340401   -0.490356
     20          9           0       10.580863  -10.615157   -1.538872
     21          1           0       13.771891  -10.937673   -1.924725
     22          1           0       14.012812   -6.577819   -1.896038
     23          1           0        9.577919   -5.694603   -0.300059
     24          1           0        9.547882   -3.220804   -0.181776
     25          1           0       11.675617   -1.954578    0.100490
     26          1           0       13.829087   -3.192818    0.286742
     27          1           0       13.856322   -5.664336    0.200652
     28          1           0        9.847805   -6.652964    2.056443
     29          1           0        9.763407  -11.001343    1.634748
     30          6           0       15.540785   -8.833660   -3.099530
     31          6           0       16.091008   -7.663397   -3.659495
     32          6           0       16.150150  -10.068828   -3.400611
     33          6           0       17.205089   -7.727397   -4.487043
     34          6           0       17.263943  -10.128573   -4.228293
     35          6           0       17.797695   -8.959125   -4.776082
     36          1           0       15.631857   -6.697333   -3.448613
     37          1           0       15.752457  -10.989504   -2.972869
     38          1           0       17.614895   -6.811069   -4.912932
     39          1           0       17.722348  -11.093338   -4.447137
     40          1           0       18.672159   -9.007739   -5.425605
     41          6           0        8.483480   -8.947606    3.391821
     42          6           0        7.916284   -7.790860    3.963171
     43          6           0        8.125834  -10.201918    3.927436
     44          6           0        7.027976   -7.886250    5.026999
     45          6           0        7.237192  -10.292953    4.990815
     46          6           0        6.683492   -9.136533    5.546677
     47          1           0        8.170317   -6.810533    3.559370
     48          1           0        8.556554  -11.113054    3.511443
     49          1           0        6.597672   -6.980098    5.454432
     50          1           0        6.974761  -11.272035    5.392417
     51          1           0        5.985856   -9.209812    6.381445
 ---------------------------------------------------------------------

 Alpha  occ. eigenvalues --  -25.21009 -25.20331 -14.80435 -14.80427 -10.62936
 Alpha  occ. eigenvalues --  -10.60931 -10.60904 -10.60451 -10.60366 -10.59128
 Alpha  occ. eigenvalues --  -10.57837 -10.57799 -10.57470 -10.57327 -10.57258
 Alpha  occ. eigenvalues --  -10.57248 -10.57233 -10.57114 -10.57076 -10.56893
 Alpha  occ. eigenvalues --  -10.56822 -10.55862 -10.55829 -10.55824 -10.55790
 Alpha  occ. eigenvalues --  -10.55751 -10.55734 -10.55721 -10.55706 -10.55593
 Alpha  occ. eigenvalues --  -10.55561  -7.13024  -1.31216  -1.27840  -1.11493
 Alpha  occ. eigenvalues --   -1.09541  -0.99113  -0.96936  -0.96805  -0.93575
 Alpha  occ. eigenvalues --   -0.91032  -0.90016  -0.86565  -0.85791  -0.85639
 Alpha  occ. eigenvalues --   -0.84641  -0.84559  -0.84178  -0.80966  -0.77138
 Alpha  occ. eigenvalues --   -0.72532  -0.71080  -0.70904  -0.70210  -0.69869
 Alpha  occ. eigenvalues --   -0.68502  -0.67513  -0.66210  -0.65389  -0.65178
 Alpha  occ. eigenvalues --   -0.62143  -0.61368  -0.60145  -0.58084  -0.57952
 Alpha  occ. eigenvalues --   -0.57086  -0.56963  -0.54914  -0.54260  -0.53200
 Alpha  occ. eigenvalues --   -0.53149  -0.52520  -0.52327  -0.52149  -0.51614
 Alpha  occ. eigenvalues --   -0.51153  -0.50557  -0.50370  -0.50001  -0.49523
 Alpha  occ. eigenvalues --   -0.48754  -0.48708  -0.47923  -0.47076  -0.47013
 Alpha  occ. eigenvalues --   -0.46534  -0.45968  -0.45483  -0.45181  -0.44906
 Alpha  occ. eigenvalues --   -0.44408  -0.44269  -0.42365  -0.42125  -0.41689
 Alpha  occ. eigenvalues --   -0.41030  -0.40588  -0.39811  -0.39607  -0.37942
 Alpha  occ. eigenvalues --   -0.35524  -0.35150  -0.32698  -0.31871  -0.31289
 Alpha  occ. eigenvalues --   -0.31201  -0.30130  -0.27807  -0.24825
 Alpha virt. eigenvalues --   -0.09561  -0.00062   0.00541   0.00742   0.00842
 Alpha virt. eigenvalues --    0.02237   0.02562   0.06278   0.09061   0.10021
 Alpha virt. eigenvalues --    0.10246   0.10364   0.11762   0.11906   0.12265

 Mulliken charges:
               1
     1  N   -0.180456
     2  C    0.110097
     3  C   -0.005351
     4  C   -0.108446
     5  C    0.154606
     6  C   -0.007062
     7  C    0.006770
     8  C   -0.006693
     9  C    0.005644
    10  C   -0.013196
    11  C   -0.081928
    12  C    0.051794
    13  C    0.144293
    14  C   -0.099686
    15  C   -0.007899
    16  C    0.110242
    17  N   -0.175316
    18  F   -0.233362
    19  B    0.175656
    20  F   -0.221056
    21  H    0.057647
    22  H    0.015632
    23  H    0.010345
    24  H    0.016157
    25  H    0.014434
    26  H    0.015765
    27  H    0.011610
    28  H    0.016850
    29  H    0.057175
    30  C    0.015167
    31  C   -0.023812
    32  C   -0.025126
    33  C    0.017196
    34  C    0.015355
    35  C    0.008442
    36  H    0.011053
    37  H    0.010571
    38  H    0.016900
    39  H    0.017768
    40  H    0.017919
    41  C    0.016491
    42  C   -0.023725
    43  C   -0.025310
    44  C    0.017359
    45  C    0.015581
    46  C    0.008616
    47  H    0.011257
    48  H    0.010899
    49  H    0.017124
    50  H    0.017868
    51  H    0.018141
 Sum of Mulliken charges =   0.00000

 Dipole moment (field-independent basis, Debye):
    X=              1.3095    Y=              3.7240    Z=              1.7537  Tot=              4.3196
 Quadrupole moment (field-independent basis, Debye-Ang):
   XX=           -120.9861   YY=           -228.0012   ZZ=           -165.6687
   XY=             30.1234   XZ=            -14.2066   YZ=            -18.4967

 Normal termination of Gaussian 09 at Wed Apr 22 18:21:37 2020.
