 Gaussian 16, Revision C.01,
 Gaussian 16:  ES64L-G16RevC.01  3-Jul-2019

 ----------------------------------------------------------------------
 #p m062x cc-pvdz scrf=(cpcm,solvent=Acetone) td=(nstate=6,root=1) opt=
 tight nosymm density=all int=ultrafine fchk
 ----------------------------------------------------------------------

 --------------------------------------
 BDP-PP-phenyl, optimized R1 in toluene
 --------------------------------------
 Symbolic Z-matrix:
 Charge =  0 Multiplicity = 1

 SCF Done:  E(RM062X) =  -1374.14819060     A.U. after   13 cycles
 Total Energy, E(TD-HF/TD-DFT) =  -1374.08331610
 SCF Done:  E(RM062X) =  -1374.14897267     A.U. after   11 cycles
 Total Energy, E(TD-HF/TD-DFT) =  -1374.08342931
 SCF Done:  E(RM062X) =  -1374.14902029     A.U. after   10 cycles
 Total Energy, E(TD-HF/TD-DFT) =  -1374.08345190
 SCF Done:  E(RM062X) =  -1374.14917669     A.U. after    8 cycles
 Total Energy, E(TD-HF/TD-DFT) =  -1374.08346316
 SCF Done:  E(RM062X) =  -1374.14921394     A.U. after    7 cycles
 Total Energy, E(TD-HF/TD-DFT) =  -1374.08346384
 SCF Done:  E(RM062X) =  -1374.14922774     A.U. after    7 cycles
 Total Energy, E(TD-HF/TD-DFT) =  -1374.08346424
 SCF Done:  E(RM062X) =  -1374.14921725     A.U. after    6 cycles
 Total Energy, E(TD-HF/TD-DFT) =  -1374.08346439
 SCF Done:  E(RM062X) =  -1374.14921213     A.U. after    7 cycles
 Total Energy, E(TD-HF/TD-DFT) =  -1374.08346460
 SCF Done:  E(RM062X) =  -1374.14920724     A.U. after    7 cycles
 Total Energy, E(TD-HF/TD-DFT) =  -1374.08346469
 SCF Done:  E(RM062X) =  -1374.14920278     A.U. after    7 cycles
 Total Energy, E(TD-HF/TD-DFT) =  -1374.08346479
 Total Energy, E(TD-HF/TD-DFT) =  -1374.08346486
 Total Energy, E(TD-HF/TD-DFT) =  -1374.08346481
 Total Energy, E(TD-HF/TD-DFT) =  -1374.08346481
 Total Energy, E(TD-HF/TD-DFT) =  -1374.08346490
 Total Energy, E(TD-HF/TD-DFT) =  -1374.08346488
 Total Energy, E(TD-HF/TD-DFT) =  -1374.08346484
 Total Energy, E(TD-HF/TD-DFT) =  -1374.08346493
 Total Energy, E(TD-HF/TD-DFT) =  -1374.08346485
 Total Energy, E(TD-HF/TD-DFT) =  -1374.08346490
 Total Energy, E(TD-HF/TD-DFT) =  -1374.08346484
 Total Energy, E(TD-HF/TD-DFT) =  -1374.08346498
 Total Energy, E(TD-HF/TD-DFT) =  -1374.08346489
 Total Energy, E(TD-HF/TD-DFT) =  -1374.08346495
 SCF Done:  E(RM062X) =  -1374.14918943     A.U. after    5 cycles
 Total Energy, E(TD-HF/TD-DFT) =  -1374.08346489
 SCF Done:  E(RM062X) =  -1374.14918914     A.U. after    3 cycles
 Total Energy, E(TD-HF/TD-DFT) =  -1374.08346486
 SCF Done:  E(RM062X) =  -1374.14918920     A.U. after    3 cycles
 Total Energy, E(TD-HF/TD-DFT) =  -1374.08346497
 SCF Done:  E(RM062X) =  -1374.14918917     A.U. after    3 cycles
 Total Energy, E(TD-HF/TD-DFT) =  -1374.08346482
 SCF Done:  E(RM062X) =  -1374.14918897     A.U. after    5 cycles
 Total Energy, E(TD-HF/TD-DFT) =  -1374.08346489
 SCF Done:  E(RM062X) =  -1374.14918909     A.U. after    3 cycles
 Total Energy, E(TD-HF/TD-DFT) =  -1374.08346488
 SCF Done:  E(RM062X) =  -1374.14918900     A.U. after    3 cycles
 Total Energy, E(TD-HF/TD-DFT) =  -1374.08346492
 SCF Done:  E(RM062X) =  -1374.14918908     A.U. after    3 cycles
 Total Energy, E(TD-HF/TD-DFT) =  -1374.08346488
 SCF Done:  E(RM062X) =  -1374.14918907     A.U. after    3 cycles
 Total Energy, E(TD-HF/TD-DFT) =  -1374.08346498
 SCF Done:  E(RM062X) =  -1374.14918902     A.U. after    4 cycles

 Excitation energies and oscillator strengths:

 Excited state symmetry could not be determined.
 Excited State   1:      Singlet-?Sym    1.7884 eV  693.25 nm  f=0.5302  <S**2>=0.000
     109 ->110         0.69439
 This state for optimization and/or second-order correction.
 Total Energy, E(TD-HF/TD-DFT) =  -1374.08346490
 Copying the excited state density for this state as the 1-particle RhoCI density.

 Excited state symmetry could not be determined.
 Excited State   2:      Singlet-?Sym    2.7741 eV  446.94 nm  f=0.4540  <S**2>=0.000
     101 ->110        -0.10718
     108 ->110         0.68424

 Excited state symmetry could not be determined.
 Excited State   3:      Singlet-?Sym    3.0838 eV  402.06 nm  f=0.1123  <S**2>=0.000
     102 ->110        -0.14028
     107 ->110         0.68113

 Excited state symmetry could not be determined.
 Excited State   4:      Singlet-?Sym    3.3812 eV  366.69 nm  f=0.3196  <S**2>=0.000
     101 ->110         0.11328
     104 ->110         0.51256
     106 ->110         0.45287
     108 ->110        -0.10822

 Excited state symmetry could not be determined.
 Excited State   5:      Singlet-?Sym    3.8282 eV  323.87 nm  f=0.0483  <S**2>=0.000
     103 ->110         0.69516

 Excited state symmetry could not be determined.
 Excited State   6:      Singlet-?Sym    4.2576 eV  291.20 nm  f=0.0027  <S**2>=0.000
     104 ->110        -0.45449
     106 ->110         0.52101

 Optimization completed.
    -- Stationary point found.

                          Input orientation:
 ---------------------------------------------------------------------
 Center     Atomic      Atomic             Coordinates (Angstroms)
 Number     Number       Type             X           Y           Z
 ---------------------------------------------------------------------
      1          7           0       12.947940   -9.206582   -0.634849
      2          6           0       14.105932   -9.817181   -0.408812
      3          6           0       14.941956   -8.981084    0.387293
      4          6           0       14.196987   -7.811670    0.637298
      5          6           0       12.956497   -7.945692   -0.005484
      6          6           0       10.552022   -4.956137    0.131471
      7          6           0       10.559121   -3.569453    0.218123
      8          6           0       11.763625   -2.864664    0.262651
      9          6           0       12.964423   -3.572773    0.183022
     10          6           0       12.965192   -4.959465    0.096322
     11          6           0       11.757408   -5.698070    0.103205
     12          6           0       11.754071   -7.147354    0.004333
     13          6           0       10.549793   -7.942769    0.025732
     14          6           0        9.326596   -7.806253    0.700367
     15          6           0        8.572433   -8.973582    0.468699
     16          6           0        9.385605   -9.811073   -0.349362
     17          7           0       10.538955   -9.203292   -0.604516
     18          9           0       11.730012  -11.113964   -1.480297
     19          5           0       11.732461   -9.726897   -1.437564
     20          9           0       11.717109   -9.173273   -2.717552
     21          1           0       14.298611  -10.801799   -0.827777
     22          1           0       14.487497   -6.985196    1.276490
     23          1           0        9.595730   -5.466658    0.049543
     24          1           0        9.610076   -3.032682    0.238753
     25          1           0       11.766144   -1.776879    0.333122
     26          1           0       13.915118   -3.038588    0.175717
     27          1           0       13.917309   -5.472666   -0.013333
     28          1           0        9.054527   -6.979518    1.347225
     29          1           0        9.180040  -10.795056   -0.763694
     30          6           0       16.292988   -9.298996    0.830238
     31          6           0       17.073594   -8.334585    1.496417
     32          6           0       16.849089  -10.574369    0.608826
     33          6           0       18.360049   -8.636547    1.927671
     34          6           0       18.136142  -10.872407    1.041221
     35          6           0       18.898085   -9.906341    1.702946
     36          1           0       16.669892   -7.336570    1.669247
     37          1           0       16.265763  -11.343003    0.101097
     38          1           0       18.949686   -7.876141    2.440532
     39          1           0       18.548238  -11.865954    0.862739
     40          1           0       19.907573  -10.141701    2.041172
     41          6           0        7.232563   -9.288841    0.946052
     42          6           0        6.665231  -10.560356    0.731011
     43          6           0        6.474244   -8.325919    1.639658
     44          6           0        5.388814  -10.856036    1.195355
     45          6           0        5.198395   -8.625527    2.102889
     46          6           0        4.648920   -9.891378    1.883705
     47          1           0        7.231356  -11.327842    0.202502
     48          1           0        6.886831   -7.330978    1.809173
     49          1           0        4.967755  -11.846549    1.021019
     50          1           0        4.626009   -7.866294    2.636641
     51          1           0        3.647708  -10.124781    2.246960
 ---------------------------------------------------------------------

 Alpha  occ. eigenvalues --  -25.22291 -25.21467 -14.80471 -14.80470 -10.64072
 Alpha  occ. eigenvalues --  -10.60624 -10.60621 -10.60597 -10.60594 -10.59500
 Alpha  occ. eigenvalues --  -10.58098 -10.58095 -10.57951 -10.57191 -10.57187
 Alpha  occ. eigenvalues --  -10.57171 -10.57170 -10.57144 -10.57142 -10.56673
 Alpha  occ. eigenvalues --  -10.56673 -10.55847 -10.55846 -10.55792 -10.55791
 Alpha  occ. eigenvalues --  -10.55738 -10.55738 -10.55719 -10.55718 -10.55558
 Alpha  occ. eigenvalues --  -10.55558  -7.13640  -1.32378  -1.29119  -1.11733
 Alpha  occ. eigenvalues --   -1.09528  -0.99245  -0.96970  -0.96838  -0.93678
 Alpha  occ. eigenvalues --   -0.91052  -0.89944  -0.86749  -0.86018  -0.85444
 Alpha  occ. eigenvalues --   -0.84642  -0.84530  -0.84263  -0.80970  -0.77384
 Alpha  occ. eigenvalues --   -0.72599  -0.71229  -0.71054  -0.70229  -0.69773
 Alpha  occ. eigenvalues --   -0.68552  -0.67850  -0.65905  -0.65320  -0.64817
 Alpha  occ. eigenvalues --   -0.62326  -0.61641  -0.60930  -0.58595  -0.58293
 Alpha  occ. eigenvalues --   -0.57533  -0.57397  -0.55019  -0.54517  -0.53284
 Alpha  occ. eigenvalues --   -0.53158  -0.52560  -0.52316  -0.52135  -0.52072
 Alpha  occ. eigenvalues --   -0.51536  -0.50724  -0.49837  -0.49829  -0.49510
 Alpha  occ. eigenvalues --   -0.48675  -0.48640  -0.48160  -0.47715  -0.47163
 Alpha  occ. eigenvalues --   -0.46841  -0.46356  -0.46181  -0.46066  -0.45405
 Alpha  occ. eigenvalues --   -0.44508  -0.44430  -0.42856  -0.42426  -0.41282
 Alpha  occ. eigenvalues --   -0.40939  -0.40488  -0.39791  -0.39586  -0.38386
 Alpha  occ. eigenvalues --   -0.35846  -0.35082  -0.32791  -0.31536  -0.31351
 Alpha  occ. eigenvalues --   -0.31166  -0.29958  -0.27597  -0.24640
 Alpha virt. eigenvalues --   -0.10931   0.00034   0.00599   0.00735   0.01106
 Alpha virt. eigenvalues --    0.02195   0.02602   0.07023   0.08892   0.09342
 Alpha virt. eigenvalues --    0.10184   0.10609   0.11372   0.11472   0.12143

 Mulliken charges:
               1
     1  N   -0.166016
     2  C    0.110014
     3  C   -0.019479
     4  C   -0.108003
     5  C    0.136547
     6  C   -0.048780
     7  C    0.008817
     8  C   -0.001307
     9  C    0.008817
    10  C   -0.048769
    11  C    0.022283
    12  C    0.000553
    13  C    0.136713
    14  C   -0.108154
    15  C   -0.019519
    16  C    0.110074
    17  N   -0.166045
    18  F   -0.231069
    19  B    0.192084
    20  F   -0.226511
    21  H    0.059800
    22  H    0.029550
    23  H    0.011903
    24  H    0.020081
    25  H    0.019526
    26  H    0.020092
    27  H    0.011997
    28  H    0.029648
    29  H    0.059835
    30  C    0.013769
    31  C   -0.032335
    32  C   -0.033327
    33  C    0.012456
    34  C    0.010815
    35  C    0.003782
    36  H    0.016374
    37  H    0.016564
    38  H    0.022870
    39  H    0.023042
    40  H    0.023516
    41  C    0.013925
    42  C   -0.033463
    43  C   -0.032400
    44  C    0.010891
    45  C    0.012500
    46  C    0.003858
    47  H    0.016604
    48  H    0.016410
    49  H    0.023050
    50  H    0.022882
    51  H    0.023536
 Sum of Mulliken charges =  -0.00000

 Dipole moment (field-independent basis, Debye):
    X=              0.0594    Y=              1.3431    Z=              5.1510  Tot=              5.3236
 Quadrupole moment (field-independent basis, Debye-Ang):
   XX=           -124.1366   YY=           -181.2552   ZZ=           -196.1889
   XY=             15.3225   XZ=             59.6207   YZ=            -40.2779

 Normal termination of Gaussian 16 at Wed Feb  2 06:28:13 2022.
