 Gaussian 16, Revision C.01,
 Gaussian 16:  ES64L-G16RevC.01  3-Jul-2019

 ----------------------------------------------------------------------
 #p m062x cc-pvdz scrf=(cpcm,solvent=Methanol) td=(nstate=6,root=1) opt
 =tight nosymm density=all int=ultrafine fchk
 ----------------------------------------------------------------------

 --------------------------------------
 BDP-PP-phenyl, optimized R1 in toluene
 --------------------------------------
 Symbolic Z-matrix:
 Charge =  0 Multiplicity = 1

 SCF Done:  E(RM062X) =  -1374.14858166     A.U. after   13 cycles
 Total Energy, E(TD-HF/TD-DFT) =  -1374.08378530
 SCF Done:  E(RM062X) =  -1374.14940394     A.U. after   11 cycles
 Total Energy, E(TD-HF/TD-DFT) =  -1374.08391113
 SCF Done:  E(RM062X) =  -1374.14945142     A.U. after   10 cycles
 Total Energy, E(TD-HF/TD-DFT) =  -1374.08393612
 SCF Done:  E(RM062X) =  -1374.14961689     A.U. after    8 cycles
 Total Energy, E(TD-HF/TD-DFT) =  -1374.08394870
 SCF Done:  E(RM062X) =  -1374.14965644     A.U. after    7 cycles
 Total Energy, E(TD-HF/TD-DFT) =  -1374.08394946
 SCF Done:  E(RM062X) =  -1374.14967084     A.U. after    7 cycles
 Total Energy, E(TD-HF/TD-DFT) =  -1374.08394990
 SCF Done:  E(RM062X) =  -1374.14965953     A.U. after    6 cycles
 Total Energy, E(TD-HF/TD-DFT) =  -1374.08395007
 SCF Done:  E(RM062X) =  -1374.14965399     A.U. after    7 cycles
 Total Energy, E(TD-HF/TD-DFT) =  -1374.08395029
 SCF Done:  E(RM062X) =  -1374.14964893     A.U. after    7 cycles
 Total Energy, E(TD-HF/TD-DFT) =  -1374.08395039
 SCF Done:  E(RM062X) =  -1374.14964440     A.U. after    7 cycles
 Total Energy, E(TD-HF/TD-DFT) =  -1374.08395049
 Total Energy, E(TD-HF/TD-DFT) =  -1374.08395057
 Total Energy, E(TD-HF/TD-DFT) =  -1374.08395053
 Total Energy, E(TD-HF/TD-DFT) =  -1374.08395053
 SCF Done:  E(RM062X) =  -1374.14963226     A.U. after    5 cycles
 Total Energy, E(TD-HF/TD-DFT) =  -1374.08395061
 SCF Done:  E(RM062X) =  -1374.14963267     A.U. after    5 cycles
 Total Energy, E(TD-HF/TD-DFT) =  -1374.08395060
 SCF Done:  E(RM062X) =  -1374.14963122     A.U. after    5 cycles
 Total Energy, E(TD-HF/TD-DFT) =  -1374.08395055
 SCF Done:  E(RM062X) =  -1374.14963065     A.U. after    5 cycles
 Total Energy, E(TD-HF/TD-DFT) =  -1374.08395064
 SCF Done:  E(RM062X) =  -1374.14963110     A.U. after    4 cycles
 Total Energy, E(TD-HF/TD-DFT) =  -1374.08395065
 SCF Done:  E(RM062X) =  -1374.14963076     A.U. after    5 cycles
 Total Energy, E(TD-HF/TD-DFT) =  -1374.08395058
 SCF Done:  E(RM062X) =  -1374.14963078     A.U. after    5 cycles
 Total Energy, E(TD-HF/TD-DFT) =  -1374.08395062
 SCF Done:  E(RM062X) =  -1374.14963090     A.U. after    3 cycles
 Total Energy, E(TD-HF/TD-DFT) =  -1374.08395063
 SCF Done:  E(RM062X) =  -1374.14963103     A.U. after    4 cycles
 Total Energy, E(TD-HF/TD-DFT) =  -1374.08395063
 SCF Done:  E(RM062X) =  -1374.14963098     A.U. after    4 cycles

 Excitation energies and oscillator strengths:

 Excited state symmetry could not be determined.
 Excited State   1:      Singlet-?Sym    1.7873 eV  693.71 nm  f=0.5358  <S**2>=0.000
     109 ->110         0.69420
 This state for optimization and/or second-order correction.
 Total Energy, E(TD-HF/TD-DFT) =  -1374.08395063
 Copying the excited state density for this state as the 1-particle RhoCI density.

 Excited state symmetry could not be determined.
 Excited State   2:      Singlet-?Sym    2.7729 eV  447.12 nm  f=0.4646  <S**2>=0.000
     101 ->110        -0.10641
     104 ->110         0.10037
     108 ->110         0.68347

 Excited state symmetry could not be determined.
 Excited State   3:      Singlet-?Sym    3.0858 eV  401.80 nm  f=0.1121  <S**2>=0.000
     102 ->110        -0.14054
     107 ->110         0.68090

 Excited state symmetry could not be determined.
 Excited State   4:      Singlet-?Sym    3.3787 eV  366.96 nm  f=0.3168  <S**2>=0.000
     101 ->110         0.11386
     104 ->110         0.50425
     106 ->110         0.46091
     108 ->110        -0.11285

 Excited state symmetry could not be determined.
 Excited State   5:      Singlet-?Sym    3.8213 eV  324.46 nm  f=0.0490  <S**2>=0.000
     103 ->110         0.69531

 Excited state symmetry could not be determined.
 Excited State   6:      Singlet-?Sym    4.2598 eV  291.06 nm  f=0.0028  <S**2>=0.000
     104 ->110        -0.46250
     106 ->110         0.51257

 Optimization completed on the basis of negligible forces.
    -- Stationary point found.

                          Input orientation:
 ---------------------------------------------------------------------
 Center     Atomic      Atomic             Coordinates (Angstroms)
 Number     Number       Type             X           Y           Z
 ---------------------------------------------------------------------
      1          7           0       12.948056   -9.208232   -0.632578
      2          6           0       14.106612   -9.818096   -0.407378
      3          6           0       14.943003   -8.981127    0.387630
      4          6           0       14.197789   -7.812086    0.637740
      5          6           0       12.956561   -7.946937   -0.003868
      6          6           0       10.552118   -4.957294    0.132961
      7          6           0       10.559186   -3.570522    0.219159
      8          6           0       11.763656   -2.865688    0.263379
      9          6           0       12.964416   -3.573854    0.183959
     10          6           0       12.965145   -4.960635    0.097714
     11          6           0       11.757430   -5.699239    0.104836
     12          6           0       11.754086   -7.148862    0.005953
     13          6           0       10.549754   -7.944014    0.027337
     14          6           0        9.325798   -7.806689    0.700825
     15          6           0        8.571364   -8.973619    0.468987
     16          6           0        9.384929   -9.811951   -0.348030
     17          7           0       10.538873   -9.204918   -0.602311
     18          9           0       11.730055  -11.116306   -1.476576
     19          5           0       11.732509   -9.729152   -1.434443
     20          9           0       11.717183   -9.176760   -2.715311
     21          1           0       14.299567  -10.802851   -0.825935
     22          1           0       14.488637   -6.985221    1.276258
     23          1           0        9.595712   -5.467624    0.051402
     24          1           0        9.610099   -3.033828    0.239782
     25          1           0       11.766180   -1.777884    0.333560
     26          1           0       13.915158   -3.039756    0.176563
     27          1           0       13.917373   -5.473657   -0.011655
     28          1           0        9.053369   -6.979565    1.347017
     29          1           0        9.179112  -10.796070   -0.761956
     30          6           0       16.294554   -9.298363    0.829597
     31          6           0       17.075256   -8.333289    1.494724
     32          6           0       16.850964  -10.573613    0.608219
     33          6           0       18.362211   -8.634537    1.925041
     34          6           0       18.138530  -10.870910    1.039688
     35          6           0       18.900594   -9.904221    1.700386
     36          1           0       16.671299   -7.335364    1.667504
     37          1           0       16.267615  -11.342744    0.101270
     38          1           0       18.951946   -7.873669    2.437097
     39          1           0       18.550910  -11.864349    0.861274
     40          1           0       19.910461  -10.139008    2.037877
     41          6           0        7.230965   -9.288238    0.945386
     42          6           0        6.663003  -10.559347    0.729563
     43          6           0        6.472852   -8.324983    1.638783
     44          6           0        5.386066  -10.854335    1.192994
     45          6           0        5.196492   -8.623925    2.101088
     46          6           0        4.646353   -9.889382    1.881153
     47          1           0        7.228887  -11.327062    0.201127
     48          1           0        6.885947   -7.330362    1.808953
     49          1           0        4.964473  -11.844514    1.018071
     50          1           0        4.624253   -7.864490    2.634702
     51          1           0        3.644755  -10.122248    2.243685
 ---------------------------------------------------------------------

 Alpha  occ. eigenvalues --  -25.22342 -25.21523 -14.80496 -14.80495 -10.64080
 Alpha  occ. eigenvalues --  -10.60643 -10.60640 -10.60611 -10.60609 -10.59488
 Alpha  occ. eigenvalues --  -10.58078 -10.58075 -10.57924 -10.57183 -10.57182
 Alpha  occ. eigenvalues --  -10.57164 -10.57160 -10.57154 -10.57153 -10.56688
 Alpha  occ. eigenvalues --  -10.56688 -10.55857 -10.55856 -10.55798 -10.55797
 Alpha  occ. eigenvalues --  -10.55745 -10.55745 -10.55724 -10.55724 -10.55565
 Alpha  occ. eigenvalues --  -10.55564  -7.13682  -1.32429  -1.29169  -1.11752
 Alpha  occ. eigenvalues --   -1.09547  -0.99229  -0.96980  -0.96848  -0.93675
 Alpha  occ. eigenvalues --   -0.91067  -0.89959  -0.86735  -0.86011  -0.85445
 Alpha  occ. eigenvalues --   -0.84649  -0.84537  -0.84274  -0.80983  -0.77386
 Alpha  occ. eigenvalues --   -0.72612  -0.71214  -0.71054  -0.70237  -0.69780
 Alpha  occ. eigenvalues --   -0.68555  -0.67861  -0.65918  -0.65329  -0.64827
 Alpha  occ. eigenvalues --   -0.62337  -0.61627  -0.60966  -0.58607  -0.58307
 Alpha  occ. eigenvalues --   -0.57556  -0.57409  -0.55026  -0.54514  -0.53298
 Alpha  occ. eigenvalues --   -0.53162  -0.52564  -0.52326  -0.52140  -0.52082
 Alpha  occ. eigenvalues --   -0.51551  -0.50728  -0.49840  -0.49837  -0.49516
 Alpha  occ. eigenvalues --   -0.48679  -0.48647  -0.48168  -0.47750  -0.47170
 Alpha  occ. eigenvalues --   -0.46851  -0.46367  -0.46194  -0.46110  -0.45413
 Alpha  occ. eigenvalues --   -0.44526  -0.44445  -0.42832  -0.42448  -0.41269
 Alpha  occ. eigenvalues --   -0.40944  -0.40494  -0.39796  -0.39593  -0.38387
 Alpha  occ. eigenvalues --   -0.35863  -0.35101  -0.32768  -0.31539  -0.31362
 Alpha  occ. eigenvalues --   -0.31172  -0.29972  -0.27611  -0.24658
 Alpha virt. eigenvalues --   -0.10933   0.00021   0.00585   0.00756   0.01110
 Alpha virt. eigenvalues --    0.02184   0.02594   0.07000   0.08887   0.09368
 Alpha virt. eigenvalues --    0.10197   0.10617   0.11368   0.11479   0.12153

 Mulliken charges:
               1
     1  N   -0.166114
     2  C    0.110306
     3  C   -0.019608
     4  C   -0.108148
     5  C    0.136540
     6  C   -0.049121
     7  C    0.008581
     8  C   -0.001493
     9  C    0.008582
    10  C   -0.049109
    11  C    0.022053
    12  C    0.000072
    13  C    0.136718
    14  C   -0.108310
    15  C   -0.019651
    16  C    0.110374
    17  N   -0.166142
    18  F   -0.231264
    19  B    0.191763
    20  F   -0.227205
    21  H    0.060186
    22  H    0.029990
    23  H    0.012004
    24  H    0.020399
    25  H    0.019830
    26  H    0.020410
    27  H    0.012097
    28  H    0.030092
    29  H    0.060224
    30  C    0.013371
    31  C   -0.032549
    32  C   -0.033544
    33  C    0.012257
    34  C    0.010596
    35  C    0.003658
    36  H    0.016764
    37  H    0.016886
    38  H    0.023201
    39  H    0.023345
    40  H    0.023841
    41  C    0.013546
    42  C   -0.033692
    43  C   -0.032627
    44  C    0.010680
    45  C    0.012307
    46  C    0.003745
    47  H    0.016929
    48  H    0.016804
    49  H    0.023353
    50  H    0.023214
    51  H    0.023862
 Sum of Mulliken charges =  -0.00000

 Dipole moment (field-independent basis, Debye):
    X=              0.0587    Y=              1.3438    Z=              5.1708  Tot=              5.3429
 Quadrupole moment (field-independent basis, Debye-Ang):
   XX=           -123.8120   YY=           -181.1890   ZZ=           -196.1966
   XY=             15.3409   XZ=             59.8480   YZ=            -40.4315

 Normal termination of Gaussian 16 at Mon Jan 31 21:12:44 2022.
