 Gaussian 16, Revision C.01,
 Gaussian 16:  ES64L-G16RevC.01  3-Jul-2019

 ----------------------------------------------------------------------
 #p m062x cc-pvdz scrf=(cpcm,solvent=Methanol) td=(nstate=6,root=1) opt
 =tight nosymm density=all int=ultrafine fchk
 ----------------------------------------------------------------------

 --------------------------------------
 BDP-PP-phenyl, optimized S1 in toluene
 --------------------------------------
 Symbolic Z-matrix:
 Charge =  0 Multiplicity = 1

 SCF Done:  E(RM062X) =  -1374.17125113     A.U. after   13 cycles
 Total Energy, E(TD-HF/TD-DFT) =  -1374.08945778
 SCF Done:  E(RM062X) =  -1374.17153737     A.U. after   10 cycles
 Total Energy, E(TD-HF/TD-DFT) =  -1374.08954305
 SCF Done:  E(RM062X) =  -1374.17167628     A.U. after    9 cycles
 Total Energy, E(TD-HF/TD-DFT) =  -1374.08955852
 SCF Done:  E(RM062X) =  -1374.17170272     A.U. after    7 cycles
 Total Energy, E(TD-HF/TD-DFT) =  -1374.08956076
 SCF Done:  E(RM062X) =  -1374.17171703     A.U. after    7 cycles
 Total Energy, E(TD-HF/TD-DFT) =  -1374.08956175
 SCF Done:  E(RM062X) =  -1374.17172175     A.U. after    7 cycles
 Total Energy, E(TD-HF/TD-DFT) =  -1374.08956224
 SCF Done:  E(RM062X) =  -1374.17171990     A.U. after    7 cycles
 Total Energy, E(TD-HF/TD-DFT) =  -1374.08956245
 SCF Done:  E(RM062X) =  -1374.17172180     A.U. after    7 cycles
 Total Energy, E(TD-HF/TD-DFT) =  -1374.08956276
 SCF Done:  E(RM062X) =  -1374.17172596     A.U. after    7 cycles
 Total Energy, E(TD-HF/TD-DFT) =  -1374.08956286
 SCF Done:  E(RM062X) =  -1374.17173030     A.U. after    6 cycles
 Total Energy, E(TD-HF/TD-DFT) =  -1374.08956290
 Total Energy, E(TD-HF/TD-DFT) =  -1374.08956289
 Total Energy, E(TD-HF/TD-DFT) =  -1374.08956293
 Total Energy, E(TD-HF/TD-DFT) =  -1374.08956291
 Total Energy, E(TD-HF/TD-DFT) =  -1374.08956290
 Total Energy, E(TD-HF/TD-DFT) =  -1374.08956295
 Total Energy, E(TD-HF/TD-DFT) =  -1374.08956291
 Total Energy, E(TD-HF/TD-DFT) =  -1374.08956296
 Total Energy, E(TD-HF/TD-DFT) =  -1374.08956292
 Total Energy, E(TD-HF/TD-DFT) =  -1374.08956292
 Total Energy, E(TD-HF/TD-DFT) =  -1374.08956296
 Total Energy, E(TD-HF/TD-DFT) =  -1374.08956289
 Total Energy, E(TD-HF/TD-DFT) =  -1374.08956300
 SCF Done:  E(RM062X) =  -1374.17172927     A.U. after    4 cycles
 Total Energy, E(TD-HF/TD-DFT) =  -1374.08956294
 SCF Done:  E(RM062X) =  -1374.17172938     A.U. after    3 cycles
 Total Energy, E(TD-HF/TD-DFT) =  -1374.08956284
 SCF Done:  E(RM062X) =  -1374.17172933     A.U. after    3 cycles
 Total Energy, E(TD-HF/TD-DFT) =  -1374.08956297
 SCF Done:  E(RM062X) =  -1374.17172948     A.U. after    4 cycles
 Total Energy, E(TD-HF/TD-DFT) =  -1374.08956295
 SCF Done:  E(RM062X) =  -1374.17172944     A.U. after    3 cycles
 Total Energy, E(TD-HF/TD-DFT) =  -1374.08956289
 SCF Done:  E(RM062X) =  -1374.17172948     A.U. after    3 cycles
 Total Energy, E(TD-HF/TD-DFT) =  -1374.08956301
 SCF Done:  E(RM062X) =  -1374.17172947     A.U. after    3 cycles
 Total Energy, E(TD-HF/TD-DFT) =  -1374.08956289
 SCF Done:  E(RM062X) =  -1374.17172939     A.U. after    3 cycles
 Total Energy, E(TD-HF/TD-DFT) =  -1374.08956299
 SCF Done:  E(RM062X) =  -1374.17172949     A.U. after    3 cycles
 Total Energy, E(TD-HF/TD-DFT) =  -1374.08956285
 SCF Done:  E(RM062X) =  -1374.17172949     A.U. after    4 cycles

 Excitation energies and oscillator strengths:

 Excited state symmetry could not be determined.
 Excited State   1:      Singlet-?Sym    2.2359 eV  554.52 nm  f=0.8868  <S**2>=0.000
     109 ->110         0.69516
 This state for optimization and/or second-order correction.
 Total Energy, E(TD-HF/TD-DFT) =  -1374.08956293
 Copying the excited state density for this state as the 1-particle RhoCI density.

 Excited state symmetry could not be determined.
 Excited State   2:      Singlet-?Sym    3.2340 eV  383.38 nm  f=0.2313  <S**2>=0.000
     101 ->110        -0.12574
     108 ->110         0.68776

 Excited state symmetry could not be determined.
 Excited State   3:      Singlet-?Sym    3.5702 eV  347.27 nm  f=0.3018  <S**2>=0.000
     102 ->110        -0.14233
     105 ->110        -0.10463
     107 ->110         0.67747

 Excited state symmetry could not be determined.
 Excited State   4:      Singlet-?Sym    3.8102 eV  325.40 nm  f=0.2564  <S**2>=0.000
     104 ->110         0.62970
     106 ->110         0.28659

 Excited state symmetry could not be determined.
 Excited State   5:      Singlet-?Sym    4.1737 eV  297.06 nm  f=0.0091  <S**2>=0.000
     103 ->110         0.69429

 Excited state symmetry could not be determined.
 Excited State   6:      Singlet-?Sym    4.5393 eV  273.13 nm  f=0.0085  <S**2>=0.000
     104 ->110        -0.25152
     105 ->110        -0.30715
     106 ->110         0.55174

 Optimization completed on the basis of negligible forces.
    -- Stationary point found.

                          Input orientation:
 ---------------------------------------------------------------------
 Center     Atomic      Atomic             Coordinates (Angstroms)
 Number     Number       Type             X           Y           Z
 ---------------------------------------------------------------------
      1          7           0       12.646381   -9.458731   -0.967737
      2          6           0       13.653342   -9.876799   -1.731052
      3          6           0       14.380600   -8.758636   -2.235513
      4          6           0       13.738552   -7.613245   -1.723248
      5          6           0       12.671741   -8.047125   -0.917543
      6          6           0       10.523355   -5.153293   -0.166811
      7          6           0       10.508182   -3.761998   -0.113475
      8          6           0       11.698540   -3.051241    0.049571
      9          6           0       12.904639   -3.744119    0.163136
     10          6           0       12.923835   -5.135845    0.109061
     11          6           0       11.732889   -5.862886   -0.061554
     12          6           0       11.736413   -7.334687   -0.118044
     13          6           0       10.840553   -8.081728    0.695999
     14          6           0        9.977499   -7.677892    1.728662
     15          6           0        9.414696   -8.840158    2.292770
     16          6           0        9.963103   -9.937292    1.563984
     17          7           0       10.791963   -9.489888    0.623883
     18          9           0       12.010235  -11.519950    0.130245
     19          5           0       11.503733  -10.353359   -0.438292
     20          9           0       10.621964  -10.675873   -1.477674
     21          1           0       13.798959  -10.938690   -1.915947
     22          1           0       14.011914   -6.577869   -1.894269
     23          1           0        9.591959   -5.703111   -0.312221
     24          1           0        9.560995   -3.229566   -0.207212
     25          1           0       11.685826   -1.961694    0.090772
     26          1           0       13.838133   -3.198261    0.304682
     27          1           0       13.867367   -5.669571    0.230228
     28          1           0        9.833267   -6.651965    2.051343
     29          1           0        9.780579  -11.003664    1.675188
     30          6           0       15.537605   -8.827184   -3.114381
     31          6           0       16.091983   -7.652090   -3.660297
     32          6           0       16.133087  -10.062970   -3.439961
     33          6           0       17.197927   -7.712398   -4.499645
     34          6           0       17.239047  -10.118549   -4.279435
     35          6           0       17.777320   -8.944755   -4.813732
     36          1           0       15.645507   -6.684867   -3.428336
     37          1           0       15.732111  -10.988278   -3.025465
     38          1           0       17.611902   -6.792768   -4.914074
     39          1           0       17.687087  -11.083481   -4.517857
     40          1           0       18.645284   -8.990259   -5.472095
     41          6           0        8.469980   -8.943302    3.393883
     42          6           0        7.898097   -7.784756    3.956782
     43          6           0        8.105340  -10.197149    3.925551
     44          6           0        6.996979   -7.878422    5.010594
     45          6           0        7.203800  -10.286078    4.979138
     46          6           0        6.645029   -9.128290    5.527302
     47          1           0        8.158134   -6.804393    3.556668
     48          1           0        8.538280  -11.110129    3.515808
     49          1           0        6.562954   -6.971362    5.432168
     50          1           0        6.935454  -11.264527    5.378249
     51          1           0        5.937559   -9.199962    6.353861
 ---------------------------------------------------------------------

 Alpha  occ. eigenvalues --  -25.21947 -25.21389 -14.80889 -14.80872 -10.63078
 Alpha  occ. eigenvalues --  -10.61246 -10.61237 -10.60681 -10.60617 -10.58875
 Alpha  occ. eigenvalues --  -10.57510 -10.57473 -10.57459 -10.57458 -10.57299
 Alpha  occ. eigenvalues --  -10.57279 -10.57134 -10.57087 -10.56998 -10.56789
 Alpha  occ. eigenvalues --  -10.56773 -10.55991 -10.55976 -10.55906 -10.55891
 Alpha  occ. eigenvalues --  -10.55833 -10.55823 -10.55814 -10.55803 -10.55672
 Alpha  occ. eigenvalues --  -10.55660  -7.13832  -1.32152  -1.28773  -1.11841
 Alpha  occ. eigenvalues --   -1.09883  -0.98850  -0.97092  -0.96964  -0.93533
 Alpha  occ. eigenvalues --   -0.91296  -0.90272  -0.86448  -0.85635  -0.85510
 Alpha  occ. eigenvalues --   -0.84721  -0.84664  -0.84347  -0.81173  -0.77183
 Alpha  occ. eigenvalues --   -0.72736  -0.70933  -0.70837  -0.70278  -0.69968
 Alpha  occ. eigenvalues --   -0.68567  -0.67613  -0.66416  -0.65590  -0.65305
 Alpha  occ. eigenvalues --   -0.62309  -0.61123  -0.60742  -0.58358  -0.58136
 Alpha  occ. eigenvalues --   -0.57491  -0.57272  -0.54981  -0.54134  -0.53402
 Alpha  occ. eigenvalues --   -0.53256  -0.52767  -0.52286  -0.52239  -0.51780
 Alpha  occ. eigenvalues --   -0.51387  -0.51041  -0.50396  -0.49742  -0.49596
 Alpha  occ. eigenvalues --   -0.48800  -0.48759  -0.48148  -0.47447  -0.47233
 Alpha  occ. eigenvalues --   -0.46976  -0.46277  -0.45881  -0.45501  -0.45232
 Alpha  occ. eigenvalues --   -0.44774  -0.44567  -0.42551  -0.41993  -0.41411
 Alpha  occ. eigenvalues --   -0.41083  -0.40713  -0.39876  -0.39714  -0.38016
 Alpha  occ. eigenvalues --   -0.35839  -0.35475  -0.32318  -0.31720  -0.31460
 Alpha  occ. eigenvalues --   -0.31351  -0.30354  -0.28059  -0.25115
 Alpha virt. eigenvalues --   -0.09685  -0.00226   0.00348   0.00914   0.01163
 Alpha virt. eigenvalues --    0.02055   0.02407   0.05943   0.09567   0.10101
 Alpha virt. eigenvalues --    0.10281   0.10518   0.11719   0.12228   0.12503

 Mulliken charges:
               1
     1  N   -0.182691
     2  C    0.112942
     3  C   -0.008026
     4  C   -0.111847
     5  C    0.152639
     6  C   -0.008902
     7  C    0.002710
     8  C   -0.010251
     9  C    0.001617
    10  C   -0.014292
    11  C   -0.086345
    12  C    0.045395
    13  C    0.145968
    14  C   -0.103320
    15  C   -0.009831
    16  C    0.113101
    17  N   -0.178732
    18  F   -0.239585
    19  B    0.172369
    20  F   -0.233605
    21  H    0.065134
    22  H    0.022825
    23  H    0.012248
    24  H    0.022632
    25  H    0.021233
    26  H    0.022617
    27  H    0.015202
    28  H    0.022318
    29  H    0.064762
    30  C    0.008185
    31  C   -0.028942
    32  C   -0.030513
    33  C    0.013201
    34  C    0.010979
    35  C    0.005781
    36  H    0.017904
    37  H    0.016804
    38  H    0.023637
    39  H    0.023901
    40  H    0.024572
    41  C    0.009022
    42  C   -0.029076
    43  C   -0.030766
    44  C    0.013144
    45  C    0.011072
    46  C    0.005600
    47  H    0.018116
    48  H    0.016926
    49  H    0.023723
    50  H    0.023865
    51  H    0.024582
 Sum of Mulliken charges =  -0.00000

 Dipole moment (field-independent basis, Debye):
    X=              1.3942    Y=              4.1596    Z=              1.7338  Tot=              4.7172
 Quadrupole moment (field-independent basis, Debye-Ang):
   XX=           -115.7853   YY=           -233.3460   ZZ=           -163.5093
   XY=             34.6674   XZ=            -17.0296   YZ=            -18.2697

 Normal termination of Gaussian 16 at Mon Jan 31 19:32:22 2022.
