 Gaussian 16, Revision C.01,
 Gaussian 16:  ES64L-G16RevC.01  3-Jul-2019

 ----------------------------------------------------------------------
 #p m062x cc-pvdz scrf=(cpcm,solvent=Methanol) td=(nstate=6,root=1) opt
 =tight nosymm density=all int=ultrafine fchk
 ----------------------------------------------------------------------

 -----------------------------------
 BDP-phenyl, optimized R1 in toluene
 -----------------------------------
 Symbolic Z-matrix:
 Charge =  0 Multiplicity = 1

 SCF Done:  E(RM062X) =  -912.161895102     A.U. after   14 cycles
 Total Energy, E(TD-HF/TD-DFT) =  -912.092219168
 SCF Done:  E(RM062X) =  -912.163862872     A.U. after   11 cycles
 Total Energy, E(TD-HF/TD-DFT) =  -912.092396429
 SCF Done:  E(RM062X) =  -912.164703776     A.U. after   11 cycles
 Total Energy, E(TD-HF/TD-DFT) =  -912.092449378
 SCF Done:  E(RM062X) =  -912.165032167     A.U. after    9 cycles
 Total Energy, E(TD-HF/TD-DFT) =  -912.092462722
 SCF Done:  E(RM062X) =  -912.165133278     A.U. after    8 cycles
 Total Energy, E(TD-HF/TD-DFT) =  -912.092464383
 SCF Done:  E(RM062X) =  -912.165137004     A.U. after    7 cycles
 Total Energy, E(TD-HF/TD-DFT) =  -912.092465823
 SCF Done:  E(RM062X) =  -912.165115266     A.U. after    7 cycles
 Total Energy, E(TD-HF/TD-DFT) =  -912.092466059
 SCF Done:  E(RM062X) =  -912.165114818     A.U. after    6 cycles
 Total Energy, E(TD-HF/TD-DFT) =  -912.092466134
 SCF Done:  E(RM062X) =  -912.165117329     A.U. after    5 cycles
 Total Energy, E(TD-HF/TD-DFT) =  -912.092466159
 SCF Done:  E(RM062X) =  -912.165117602     A.U. after    5 cycles
 Total Energy, E(TD-HF/TD-DFT) =  -912.092466159
 SCF Done:  E(RM062X) =  -912.165118202     A.U. after    5 cycles
 Total Energy, E(TD-HF/TD-DFT) =  -912.092466152
 SCF Done:  E(RM062X) =  -912.165117599     A.U. after    6 cycles
 Total Energy, E(TD-HF/TD-DFT) =  -912.092466159
 SCF Done:  E(RM062X) =  -912.165117967     A.U. after    4 cycles
 Total Energy, E(TD-HF/TD-DFT) =  -912.092466158
 SCF Done:  E(RM062X) =  -912.165117727     A.U. after    5 cycles

 Excitation energies and oscillator strengths:

 Excited state symmetry could not be determined.
 Excited State   1:      Singlet-?Sym    1.9769 eV  627.15 nm  f=0.3351  <S**2>=0.000
      69 -> 70         0.70125
 This state for optimization and/or second-order correction.
 Total Energy, E(TD-HF/TD-DFT) =  -912.092466161
 Copying the excited state density for this state as the 1-particle RhoCI density.

 Excited state symmetry could not be determined.
 Excited State   2:      Singlet-?Sym    3.1526 eV  393.28 nm  f=0.7594  <S**2>=0.000
      68 -> 70         0.69989

 Excited state symmetry could not be determined.
 Excited State   3:      Singlet-?Sym    3.3539 eV  369.67 nm  f=0.0373  <S**2>=0.000
      67 -> 70         0.70238

 Excited state symmetry could not be determined.
 Excited State   4:      Singlet-?Sym    3.7764 eV  328.31 nm  f=0.0285  <S**2>=0.000
      65 -> 70         0.69834

 Excited state symmetry could not be determined.
 Excited State   5:      Singlet-?Sym    3.8870 eV  318.97 nm  f=0.0421  <S**2>=0.000
      66 -> 70         0.69202

 Excited state symmetry could not be determined.
 Excited State   6:      Singlet-?Sym    5.3035 eV  233.78 nm  f=0.0547  <S**2>=0.000
      64 -> 70         0.67879

 Optimization completed.
    -- Stationary point found.

                          Input orientation:
 ---------------------------------------------------------------------
 Center     Atomic      Atomic             Coordinates (Angstroms)
 Number     Number       Type             X           Y           Z
 ---------------------------------------------------------------------
      1          5           0       -0.207913    0.977029    0.342852
      2          7           0       -0.054356    0.095930    1.609494
      3          6           0        1.059665   -0.401926    2.151964
      4          1           0        2.034817   -0.174537    1.727465
      5          6           0        0.724461   -1.204183    3.272928
      6          1           0        1.432703   -1.727663    3.908621
      7          6           0       -0.659760   -1.189992    3.384526
      8          1           0       -1.267144   -1.738166    4.097692
      9          6           0       -1.156332   -0.349410    2.347700
     10          6           0       -2.492856   -0.023146    1.909457
     11          7           0       -1.506103    0.424005   -0.299278
     12          6           0       -1.788309    0.241477   -1.591712
     13          1           0       -1.077204    0.529629   -2.362536
     14          6           0       -3.072224   -0.348320   -1.718709
     15          1           0       -3.560136   -0.602272   -2.655322
     16          6           0       -3.562705   -0.536847   -0.433154
     17          1           0       -4.495937   -1.012737   -0.148876
     18          6           0       -2.584906   -0.027630    0.468457
     19          9           0       -0.368334    2.317134    0.695265
     20          9           0        0.872582    0.799047   -0.509234
     21          6           0       -3.625417    0.131406    2.795764
     22          6           0       -3.471576    0.076972    4.201703
     23          1           0       -2.483300   -0.063998    4.635202
     24          6           0       -4.560032    0.238474    5.049219
     25          1           0       -4.408511    0.191377    6.128057
     26          6           0       -5.836034    0.472365    4.530944
     27          6           0       -6.001369    0.572519    3.147482
     28          1           0       -6.984712    0.788763    2.728670
     29          6           0       -4.918355    0.412207    2.292833
     30          1           0       -5.069523    0.536143    1.222121
     31          1           0       -6.688587    0.596353    5.198826
 ---------------------------------------------------------------------

 Alpha  occ. eigenvalues --  -25.22022 -25.21290 -14.79930 -14.79929 -10.63804
 Alpha  occ. eigenvalues --  -10.60073 -10.60069 -10.59908 -10.59907 -10.59356
 Alpha  occ. eigenvalues --  -10.58090 -10.58087 -10.57966 -10.57167 -10.57163
 Alpha  occ. eigenvalues --  -10.56847 -10.56846 -10.55365 -10.55364  -7.13422
 Alpha  occ. eigenvalues --   -1.32154  -1.28917  -1.11184  -1.08870  -0.99170
 Alpha  occ. eigenvalues --   -0.93373  -0.89393  -0.87864  -0.86331  -0.85667
 Alpha  occ. eigenvalues --   -0.82052  -0.76816  -0.70998  -0.70307  -0.69774
 Alpha  occ. eigenvalues --   -0.67022  -0.65985  -0.64989  -0.62177  -0.61549
 Alpha  occ. eigenvalues --   -0.60368  -0.58071  -0.57309  -0.54313  -0.54051
 Alpha  occ. eigenvalues --   -0.53169  -0.52292  -0.51696  -0.50527  -0.49920
 Alpha  occ. eigenvalues --   -0.49734  -0.49278  -0.48375  -0.47018  -0.46869
 Alpha  occ. eigenvalues --   -0.46508  -0.45833  -0.45708  -0.44825  -0.44678
 Alpha  occ. eigenvalues --   -0.42840  -0.41886  -0.40990  -0.37784  -0.32839
 Alpha  occ. eigenvalues --   -0.32795  -0.31468  -0.30290  -0.25819
 Alpha virt. eigenvalues --   -0.10543   0.00787   0.01502   0.07246   0.07279
 Alpha virt. eigenvalues --    0.09713   0.09930   0.10675   0.12646   0.12674
 Alpha virt. eigenvalues --    0.14289   0.14751   0.15874   0.16483   0.16690

 Mulliken charges:
               1
     1  B    0.194869
     2  N   -0.164036
     3  C    0.103805
     4  H    0.059453
     5  C   -0.023669
     6  H    0.033245
     7  C   -0.049381
     8  H    0.029916
     9  C    0.129769
    10  C   -0.021071
    11  N   -0.163727
    12  C    0.103745
    13  H    0.059458
    14  C   -0.023551
    15  H    0.033267
    16  C   -0.049484
    17  H    0.029801
    18  C    0.129559
    19  F   -0.229105
    20  F   -0.232586
    21  C    0.035004
    22  C   -0.047029
    23  H    0.012690
    24  C    0.008961
    25  H    0.022171
    26  C   -0.001051
    27  C    0.008965
    28  H    0.022212
    29  C   -0.046900
    30  H    0.012975
    31  H    0.021726
 Sum of Mulliken charges =  -0.00000

 Dipole moment (field-independent basis, Debye):
    X=             -2.9812    Y=             -4.0374    Z=              1.5708  Tot=              5.2588
 Quadrupole moment (field-independent basis, Debye-Ang):
   XX=            -87.8050   YY=           -123.4710   ZZ=            -88.8851
   XY=             -0.1956   XZ=             -0.3084   YZ=             -6.0359

 Normal termination of Gaussian 16 at Mon Jan 31 16:11:11 2022.
