 Gaussian 16, Revision C.01,
 Gaussian 16:  ES64L-G16RevC.01  3-Jul-2019

 ----------------------------------------------------------------------
 #p m062x cc-pvdz scrf=(cpcm,solvent=DiMethylSulfoxide) td=(nstate=6,ro
 ot=1) opt=tight nosymm density=all int=ultrafine fchk
 ----------------------------------------------------------------------

 -----------------------------------
 BDP-phenyl, optimized S1 in toluene
 -----------------------------------
 Symbolic Z-matrix:
 Charge =  0 Multiplicity = 1

 SCF Done:  E(RM062X) =  -912.191531484     A.U. after   13 cycles
 Total Energy, E(TD-HF/TD-DFT) =  -912.095628742
 SCF Done:  E(RM062X) =  -912.191829759     A.U. after   10 cycles
 Total Energy, E(TD-HF/TD-DFT) =  -912.095738334
 SCF Done:  E(RM062X) =  -912.191969010     A.U. after    9 cycles
 Total Energy, E(TD-HF/TD-DFT) =  -912.095761773
 SCF Done:  E(RM062X) =  -912.192025510     A.U. after    8 cycles
 Total Energy, E(TD-HF/TD-DFT) =  -912.095768886
 SCF Done:  E(RM062X) =  -912.192076553     A.U. after    8 cycles
 Total Energy, E(TD-HF/TD-DFT) =  -912.095772961
 SCF Done:  E(RM062X) =  -912.192129253     A.U. after    9 cycles
 Total Energy, E(TD-HF/TD-DFT) =  -912.095775860
 SCF Done:  E(RM062X) =  -912.192152729     A.U. after    8 cycles
 Total Energy, E(TD-HF/TD-DFT) =  -912.095777294
 SCF Done:  E(RM062X) =  -912.192167071     A.U. after    8 cycles
 Total Energy, E(TD-HF/TD-DFT) =  -912.095778280
 SCF Done:  E(RM062X) =  -912.192166653     A.U. after    7 cycles
 Total Energy, E(TD-HF/TD-DFT) =  -912.095778526
 SCF Done:  E(RM062X) =  -912.192165357     A.U. after    6 cycles
 Total Energy, E(TD-HF/TD-DFT) =  -912.095778551
 SCF Done:  E(RM062X) =  -912.192163095     A.U. after    5 cycles
 Total Energy, E(TD-HF/TD-DFT) =  -912.095778571
 SCF Done:  E(RM062X) =  -912.192162513     A.U. after    5 cycles
 Total Energy, E(TD-HF/TD-DFT) =  -912.095778563
 SCF Done:  E(RM062X) =  -912.192162380     A.U. after    3 cycles
 Total Energy, E(TD-HF/TD-DFT) =  -912.095778569
 SCF Done:  E(RM062X) =  -912.192162199     A.U. after    3 cycles
 Total Energy, E(TD-HF/TD-DFT) =  -912.095778595
 SCF Done:  E(RM062X) =  -912.192162036     A.U. after    3 cycles
 Total Energy, E(TD-HF/TD-DFT) =  -912.095778537
 SCF Done:  E(RM062X) =  -912.192162324     A.U. after    4 cycles
 Total Energy, E(TD-HF/TD-DFT) =  -912.095778553
 SCF Done:  E(RM062X) =  -912.192162215     A.U. after    3 cycles
 Total Energy, E(TD-HF/TD-DFT) =  -912.095778597
 SCF Done:  E(RM062X) =  -912.192162302     A.U. after    3 cycles
 Total Energy, E(TD-HF/TD-DFT) =  -912.095778557
 SCF Done:  E(RM062X) =  -912.192162085     A.U. after    3 cycles
 Total Energy, E(TD-HF/TD-DFT) =  -912.095778618
 SCF Done:  E(RM062X) =  -912.192162223     A.U. after    3 cycles

 Excitation energies and oscillator strengths:

 Excited state symmetry could not be determined.
 Excited State   1:      Singlet-?Sym    2.6227 eV  472.73 nm  f=0.6617  <S**2>=0.000
      69 -> 70         0.70067
 This state for optimization and/or second-order correction.
 Total Energy, E(TD-HF/TD-DFT) =  -912.095778559
 Copying the excited state density for this state as the 1-particle RhoCI density.

 Excited state symmetry could not be determined.
 Excited State   2:      Singlet-?Sym    3.8217 eV  324.42 nm  f=0.4997  <S**2>=0.000
      68 -> 70         0.69829

 Excited state symmetry could not be determined.
 Excited State   3:      Singlet-?Sym    3.9294 eV  315.53 nm  f=0.1068  <S**2>=0.000
      66 -> 70        -0.43630
      67 -> 70         0.54913

 Excited state symmetry could not be determined.
 Excited State   4:      Singlet-?Sym    4.2105 eV  294.46 nm  f=0.0685  <S**2>=0.000
      65 -> 70         0.68712
      66 -> 70        -0.11643

 Excited state symmetry could not be determined.
 Excited State   5:      Singlet-?Sym    4.2938 eV  288.75 nm  f=0.0114  <S**2>=0.000
      65 -> 70        -0.14532
      66 -> 70        -0.53273
      67 -> 70        -0.42126

 Excited state symmetry could not be determined.
 Excited State   6:      Singlet-?Sym    5.5556 eV  223.17 nm  f=0.1733  <S**2>=0.000
      63 -> 70         0.10988
      64 -> 70         0.67192

 Optimization completed.
    -- Stationary point found.

                          Input orientation:
 ---------------------------------------------------------------------
 Center     Atomic      Atomic             Coordinates (Angstroms)
 Number     Number       Type             X           Y           Z
 ---------------------------------------------------------------------
      1          5           0       -0.015409   -0.249932    0.010836
      2          7           0        0.001406   -0.067219    1.543329
      3          6           0        1.097269    0.036794    2.305357
      4          1           0        2.089255    0.036448    1.858102
      5          6           0        0.725457    0.143989    3.672707
      6          1           0        1.416518    0.246958    4.504509
      7          6           0       -0.659833    0.107934    3.722529
      8          1           0       -1.296713    0.196680    4.597200
      9          6           0       -1.123629   -0.026429    2.378352
     10          6           0       -2.445312   -0.032562    1.851137
     11          7           0       -1.473097    0.044389   -0.409212
     12          6           0       -1.900912    0.154345   -1.673022
     13          1           0       -1.195674    0.162530   -2.501739
     14          6           0       -3.319559    0.223587   -1.698365
     15          1           0       -3.928220    0.311603   -2.593820
     16          6           0       -3.755547    0.147558   -0.384119
     17          1           0       -4.779965    0.155607   -0.026443
     18          6           0       -2.591867    0.046075    0.438594
     19          9           0        0.864994    0.642643   -0.600197
     20          9           0        0.333851   -1.561824   -0.334053
     21          6           0       -3.608588   -0.046793    2.752656
     22          6           0       -3.673618   -0.971138    3.810084
     23          1           0       -2.866606   -1.694244    3.940554
     24          6           0       -4.768120   -0.988571    4.670607
     25          1           0       -4.806019   -1.719108    5.479352
     26          6           0       -5.815459   -0.082531    4.494583
     27          6           0       -5.759339    0.843336    3.451912
     28          1           0       -6.567073    1.563007    3.314737
     29          6           0       -4.667160    0.863030    2.587806
     30          1           0       -4.616605    1.610719    1.795032
     31          1           0       -6.671830   -0.096883    5.169417
 ---------------------------------------------------------------------

 Alpha  occ. eigenvalues --  -25.21590 -25.21201 -14.80475 -14.80473 -10.62744
 Alpha  occ. eigenvalues --  -10.60751 -10.60737 -10.60284 -10.60219 -10.58729
 Alpha  occ. eigenvalues --  -10.57356 -10.57343 -10.57337 -10.57288 -10.56901
 Alpha  occ. eigenvalues --  -10.56700 -10.56685 -10.55923 -10.55884  -7.13593
 Alpha  occ. eigenvalues --   -1.31883  -1.28507  -1.11332  -1.09301  -0.98663
 Alpha  occ. eigenvalues --   -0.93131  -0.89807  -0.88390  -0.85731  -0.85196
 Alpha  occ. eigenvalues --   -0.82543  -0.76585  -0.70489  -0.70283  -0.69847
 Alpha  occ. eigenvalues --   -0.66816  -0.66550  -0.65959  -0.62181  -0.60896
 Alpha  occ. eigenvalues --   -0.60104  -0.57707  -0.57087  -0.54406  -0.53735
 Alpha  occ. eigenvalues --   -0.53242  -0.52240  -0.51484  -0.50528  -0.50274
 Alpha  occ. eigenvalues --   -0.49794  -0.49610  -0.48246  -0.47040  -0.46851
 Alpha  occ. eigenvalues --   -0.46534  -0.45584  -0.45355  -0.45095  -0.44489
 Alpha  occ. eigenvalues --   -0.42128  -0.41850  -0.41261  -0.37241  -0.33072
 Alpha  occ. eigenvalues --   -0.32393  -0.32033  -0.31193  -0.26648
 Alpha virt. eigenvalues --   -0.09075   0.01060   0.01235   0.05743   0.07442
 Alpha virt. eigenvalues --    0.09311   0.10587   0.12478   0.12637   0.13486
 Alpha virt. eigenvalues --    0.14129   0.14637   0.15631   0.15910   0.16958

 Mulliken charges:
               1
     1  B    0.168980
     2  N   -0.180045
     3  C    0.104980
     4  H    0.064092
     5  C   -0.009164
     6  H    0.033716
     7  C   -0.039793
     8  H    0.024072
     9  C    0.137323
    10  C    0.048992
    11  N   -0.183750
    12  C    0.106289
    13  H    0.064378
    14  C   -0.008789
    15  H    0.033720
    16  C   -0.045618
    17  H    0.025293
    18  C    0.140346
    19  F   -0.241795
    20  F   -0.237092
    21  C   -0.080924
    22  C   -0.009739
    23  H    0.014565
    24  C    0.003236
    25  H    0.024093
    26  C   -0.008668
    27  C    0.002878
    28  H    0.024111
    29  C   -0.015088
    30  H    0.016701
    31  H    0.022699
 Sum of Mulliken charges =  -0.00000

 Dipole moment (field-independent basis, Debye):
    X=             -4.1295    Y=              1.3453    Z=              3.2154  Tot=              5.4038
 Quadrupole moment (field-independent basis, Debye-Ang):
   XX=            -87.1846   YY=           -118.7433   ZZ=            -87.5157
   XY=             -3.1620   XZ=             -1.6809   YZ=             -3.5497

 Normal termination of Gaussian 16 at Mon Jan 31 15:39:54 2022.
