 Gaussian 16, Revision C.01,
 Gaussian 16:  ES64L-G16RevC.01  3-Jul-2019

 ----------------------------------------------------------------------
 #p m062x cc-pvdz scrf=(cpcm,solvent=TetraHydroFuran) td=(nstate=6,root
 =1) opt=tight nosymm density=all int=ultrafine fchk
 ----------------------------------------------------------------------

 -----------------------------------
 BDP-phenyl, optimized S1 in toluene
 -----------------------------------
 Symbolic Z-matrix:
 Charge =  0 Multiplicity = 1

 SCF Done:  E(RM062X) =  -912.189878082     A.U. after   13 cycles
 Total Energy, E(TD-HF/TD-DFT) =  -912.092179402
 SCF Done:  E(RM062X) =  -912.190095596     A.U. after    9 cycles
 Total Energy, E(TD-HF/TD-DFT) =  -912.092233868
 SCF Done:  E(RM062X) =  -912.190201700     A.U. after    9 cycles
 Total Energy, E(TD-HF/TD-DFT) =  -912.092245725
 SCF Done:  E(RM062X) =  -912.190245454     A.U. after    8 cycles
 Total Energy, E(TD-HF/TD-DFT) =  -912.092249501
 SCF Done:  E(RM062X) =  -912.190286935     A.U. after    8 cycles
 Total Energy, E(TD-HF/TD-DFT) =  -912.092251739
 SCF Done:  E(RM062X) =  -912.190330513     A.U. after    8 cycles
 Total Energy, E(TD-HF/TD-DFT) =  -912.092253349
 SCF Done:  E(RM062X) =  -912.190348722     A.U. after    8 cycles
 Total Energy, E(TD-HF/TD-DFT) =  -912.092254150
 SCF Done:  E(RM062X) =  -912.190359504     A.U. after    8 cycles
 Total Energy, E(TD-HF/TD-DFT) =  -912.092254662
 SCF Done:  E(RM062X) =  -912.190359513     A.U. after    7 cycles
 Total Energy, E(TD-HF/TD-DFT) =  -912.092254771
 SCF Done:  E(RM062X) =  -912.190358142     A.U. after    6 cycles
 Total Energy, E(TD-HF/TD-DFT) =  -912.092254796
 SCF Done:  E(RM062X) =  -912.190356761     A.U. after    5 cycles
 Total Energy, E(TD-HF/TD-DFT) =  -912.092254821
 SCF Done:  E(RM062X) =  -912.190356222     A.U. after    5 cycles
 Total Energy, E(TD-HF/TD-DFT) =  -912.092254801
 SCF Done:  E(RM062X) =  -912.190355965     A.U. after    3 cycles
 Total Energy, E(TD-HF/TD-DFT) =  -912.092254796
 SCF Done:  E(RM062X) =  -912.190354063     A.U. after    6 cycles
 Total Energy, E(TD-HF/TD-DFT) =  -912.092254815
 SCF Done:  E(RM062X) =  -912.190355815     A.U. after    6 cycles

 Excitation energies and oscillator strengths:

 Excited state symmetry could not be determined.
 Excited State   1:      Singlet-?Sym    2.6695 eV  464.45 nm  f=0.6142  <S**2>=0.000
      69 -> 70         0.70020
 This state for optimization and/or second-order correction.
 Total Energy, E(TD-HF/TD-DFT) =  -912.092254805
 Copying the excited state density for this state as the 1-particle RhoCI density.

 Excited state symmetry could not be determined.
 Excited State   2:      Singlet-?Sym    3.8652 eV  320.77 nm  f=0.4713  <S**2>=0.000
      68 -> 70         0.69618

 Excited state symmetry could not be determined.
 Excited State   3:      Singlet-?Sym    3.9287 eV  315.59 nm  f=0.1097  <S**2>=0.000
      66 -> 70         0.28988
      67 -> 70         0.63559

 Excited state symmetry could not be determined.
 Excited State   4:      Singlet-?Sym    4.2053 eV  294.83 nm  f=0.0639  <S**2>=0.000
      65 -> 70         0.68956
      66 -> 70         0.12258

 Excited state symmetry could not be determined.
 Excited State   5:      Singlet-?Sym    4.3323 eV  286.18 nm  f=0.0102  <S**2>=0.000
      65 -> 70        -0.13122
      66 -> 70         0.61982
      67 -> 70        -0.28154

 Excited state symmetry could not be determined.
 Excited State   6:      Singlet-?Sym    5.5754 eV  222.38 nm  f=0.1538  <S**2>=0.000
      63 -> 70         0.11889
      64 -> 70         0.66158
      69 -> 71         0.10619

 Optimization completed.
    -- Stationary point found.

                          Input orientation:
 ---------------------------------------------------------------------
 Center     Atomic      Atomic             Coordinates (Angstroms)
 Number     Number       Type             X           Y           Z
 ---------------------------------------------------------------------
      1          5           0       -0.016810   -0.267709    0.011177
      2          7           0        0.000551   -0.072244    1.542927
      3          6           0        1.095725    0.038368    2.303134
      4          1           0        2.086927    0.036505    1.854371
      5          6           0        0.723922    0.153615    3.669971
      6          1           0        1.414520    0.262797    4.501338
      7          6           0       -0.661851    0.116034    3.720316
      8          1           0       -1.298853    0.211219    4.594201
      9          6           0       -1.124992   -0.027520    2.378160
     10          6           0       -2.447231   -0.034521    1.850678
     11          7           0       -1.471775    0.044803   -0.408744
     12          6           0       -1.896147    0.163269   -1.671837
     13          1           0       -1.188382    0.170391   -2.498287
     14          6           0       -3.314450    0.239723   -1.699259
     15          1           0       -3.921613    0.334103   -2.595064
     16          6           0       -3.753416    0.159336   -0.385678
     17          1           0       -4.778495    0.169622   -0.030181
     18          6           0       -2.592536    0.048516    0.437762
     19          9           0        0.873691    0.608969   -0.605419
     20          9           0        0.311171   -1.586534   -0.321655
     21          6           0       -3.609272   -0.049702    2.752277
     22          6           0       -3.669692   -0.970389    3.813480
     23          1           0       -2.859607   -1.689819    3.945046
     24          6           0       -4.763374   -0.989592    4.674623
     25          1           0       -4.797790   -1.717882    5.485563
     26          6           0       -5.814622   -0.088538    4.496604
     27          6           0       -5.762947    0.834143    3.450998
     28          1           0       -6.573392    1.550562    3.312672
     29          6           0       -4.671988    0.855257    2.585684
     30          1           0       -4.624307    1.601412    1.791378
     31          1           0       -6.670369   -0.104201    5.172183
 ---------------------------------------------------------------------

 Alpha  occ. eigenvalues --  -25.21293 -25.20863 -14.80342 -14.80341 -10.62705
 Alpha  occ. eigenvalues --  -10.60660 -10.60643 -10.60218 -10.60146 -10.58801
 Alpha  occ. eigenvalues --  -10.57461 -10.57441 -10.57294 -10.57237 -10.57039
 Alpha  occ. eigenvalues --  -10.56836 -10.56818 -10.55885 -10.55839  -7.13339
 Alpha  occ. eigenvalues --   -1.31587  -1.28214  -1.11224  -1.09201  -0.98741
 Alpha  occ. eigenvalues --   -0.93143  -0.89716  -0.88325  -0.85846  -0.85249
 Alpha  occ. eigenvalues --   -0.82469  -0.76573  -0.70593  -0.70201  -0.69823
 Alpha  occ. eigenvalues --   -0.66813  -0.66468  -0.65903  -0.62099  -0.60960
 Alpha  occ. eigenvalues --   -0.59879  -0.57515  -0.57062  -0.54345  -0.53799
 Alpha  occ. eigenvalues --   -0.53093  -0.52221  -0.51392  -0.50385  -0.50209
 Alpha  occ. eigenvalues --   -0.49832  -0.49644  -0.48146  -0.47006  -0.46781
 Alpha  occ. eigenvalues --   -0.46332  -0.45514  -0.45109  -0.44955  -0.44497
 Alpha  occ. eigenvalues --   -0.41965  -0.41950  -0.41346  -0.37233  -0.32976
 Alpha  occ. eigenvalues --   -0.32426  -0.32017  -0.31233  -0.26564
 Alpha virt. eigenvalues --   -0.09026   0.00989   0.01128   0.05861   0.07527
 Alpha virt. eigenvalues --    0.09260   0.10492   0.12459   0.12548   0.13485
 Alpha virt. eigenvalues --    0.14020   0.14604   0.15556   0.15858   0.16889

 Mulliken charges:
               1
     1  B    0.169929
     2  N   -0.178365
     3  C    0.105191
     4  H    0.062605
     5  C   -0.009339
     6  H    0.031443
     7  C   -0.039380
     8  H    0.022514
     9  C    0.136379
    10  C    0.050697
    11  N   -0.182473
    12  C    0.106584
    13  H    0.062917
    14  C   -0.008941
    15  H    0.031419
    16  C   -0.045480
    17  H    0.023627
    18  C    0.140255
    19  F   -0.239127
    20  F   -0.233038
    21  C   -0.079207
    22  C   -0.009233
    23  H    0.013893
    24  C    0.004528
    25  H    0.022376
    26  C   -0.007527
    27  C    0.004127
    28  H    0.022271
    29  C   -0.015147
    30  H    0.015597
    31  H    0.020903
 Sum of Mulliken charges =  -0.00000

 Dipole moment (field-independent basis, Debye):
    X=             -3.9965    Y=              1.3803    Z=              3.1236  Tot=              5.2568
 Quadrupole moment (field-independent basis, Debye-Ang):
   XX=            -87.9268   YY=           -118.7984   ZZ=            -88.1719
   XY=             -3.1157   XZ=             -1.6197   YZ=             -3.5208

 Normal termination of Gaussian 16 at Tue Feb  1 14:46:35 2022.
