 Gaussian 16, Revision C.01,
 Gaussian 16:  ES64L-G16RevC.01  3-Jul-2019

 ----------------------------------------------------------------------
 #p m062x cc-pvdz scrf=(cpcm,solvent=DiMethylSulfoxide) td=(nstate=6,ro
 ot=1) opt=tight nosymm density=all int=ultrafine fchk
 ----------------------------------------------------------------------

 -----------------------------------
 BDP-phenyl, optimized R1 in toluene
 -----------------------------------
 Symbolic Z-matrix:
 Charge =  0 Multiplicity = 1

 SCF Done:  E(RM062X) =  -912.162047412     A.U. after   13 cycles
 Total Energy, E(TD-HF/TD-DFT) =  -912.092442448
 SCF Done:  E(RM062X) =  -912.164063773     A.U. after   11 cycles
 Total Energy, E(TD-HF/TD-DFT) =  -912.092629291
 SCF Done:  E(RM062X) =  -912.164920807     A.U. after   11 cycles
 Total Energy, E(TD-HF/TD-DFT) =  -912.092685020
 SCF Done:  E(RM062X) =  -912.165256112     A.U. after    9 cycles
 Total Energy, E(TD-HF/TD-DFT) =  -912.092699069
 SCF Done:  E(RM062X) =  -912.165359555     A.U. after    8 cycles
 Total Energy, E(TD-HF/TD-DFT) =  -912.092700768
 SCF Done:  E(RM062X) =  -912.165362085     A.U. after    7 cycles
 Total Energy, E(TD-HF/TD-DFT) =  -912.092702326
 SCF Done:  E(RM062X) =  -912.165340149     A.U. after    7 cycles
 Total Energy, E(TD-HF/TD-DFT) =  -912.092702573
 SCF Done:  E(RM062X) =  -912.165339799     A.U. after    6 cycles
 Total Energy, E(TD-HF/TD-DFT) =  -912.092702649
 SCF Done:  E(RM062X) =  -912.165342282     A.U. after    5 cycles
 Total Energy, E(TD-HF/TD-DFT) =  -912.092702675
 SCF Done:  E(RM062X) =  -912.165342530     A.U. after    5 cycles
 Total Energy, E(TD-HF/TD-DFT) =  -912.092702676
 SCF Done:  E(RM062X) =  -912.165343154     A.U. after    5 cycles
 Total Energy, E(TD-HF/TD-DFT) =  -912.092702662
 SCF Done:  E(RM062X) =  -912.165342610     A.U. after    6 cycles
 Total Energy, E(TD-HF/TD-DFT) =  -912.092702675
 SCF Done:  E(RM062X) =  -912.165342945     A.U. after    4 cycles
 Total Energy, E(TD-HF/TD-DFT) =  -912.092702674
 SCF Done:  E(RM062X) =  -912.165342766     A.U. after    5 cycles
 Total Energy, E(TD-HF/TD-DFT) =  -912.092702666
 SCF Done:  E(RM062X) =  -912.165342774     A.U. after    5 cycles
 Total Energy, E(TD-HF/TD-DFT) =  -912.092702662
 SCF Done:  E(RM062X) =  -912.165342679     A.U. after    5 cycles

 Excitation energies and oscillator strengths:

 Excited state symmetry could not be determined.
 Excited State   1:      Singlet-?Sym    1.9766 eV  627.25 nm  f=0.3382  <S**2>=0.000
      69 -> 70         0.70123
 This state for optimization and/or second-order correction.
 Total Energy, E(TD-HF/TD-DFT) =  -912.092702665
 Copying the excited state density for this state as the 1-particle RhoCI density.

 Excited state symmetry could not be determined.
 Excited State   2:      Singlet-?Sym    3.1497 eV  393.64 nm  f=0.7632  <S**2>=0.000
      68 -> 70         0.69992

 Excited state symmetry could not be determined.
 Excited State   3:      Singlet-?Sym    3.3565 eV  369.39 nm  f=0.0375  <S**2>=0.000
      67 -> 70         0.70240

 Excited state symmetry could not be determined.
 Excited State   4:      Singlet-?Sym    3.7789 eV  328.10 nm  f=0.0289  <S**2>=0.000
      65 -> 70         0.69959

 Excited state symmetry could not be determined.
 Excited State   5:      Singlet-?Sym    3.8838 eV  319.23 nm  f=0.0424  <S**2>=0.000
      66 -> 70         0.69329

 Excited state symmetry could not be determined.
 Excited State   6:      Singlet-?Sym    5.3036 eV  233.77 nm  f=0.0542  <S**2>=0.000
      64 -> 70         0.67901

 Optimization completed.
    -- Stationary point found.

                          Input orientation:
 ---------------------------------------------------------------------
 Center     Atomic      Atomic             Coordinates (Angstroms)
 Number     Number       Type             X           Y           Z
 ---------------------------------------------------------------------
      1          5           0       -0.207476    0.975804    0.342275
      2          7           0       -0.054124    0.095415    1.609268
      3          6           0        1.059939   -0.401830    2.152341
      4          1           0        2.035160   -0.174729    1.727830
      5          6           0        0.724709   -1.203162    3.273972
      6          1           0        1.432959   -1.726147    3.910064
      7          6           0       -0.659467   -1.188973    3.385462
      8          1           0       -1.266749   -1.736725    4.099027
      9          6           0       -1.156156   -0.349359    2.347747
     10          6           0       -2.492622   -0.023463    1.909261
     11          7           0       -1.505921    0.423412   -0.299547
     12          6           0       -1.788629    0.241560   -1.592024
     13          1           0       -1.077565    0.529413   -2.363005
     14          6           0       -3.073044   -0.347198   -1.718899
     15          1           0       -3.561279   -0.600623   -2.655487
     16          6           0       -3.563371   -0.535695   -0.433337
     17          1           0       -4.496885   -1.011050   -0.149109
     18          6           0       -2.584886   -0.027590    0.468343
     19          9           0       -0.367013    2.316378    0.694033
     20          9           0        0.872960    0.797209   -0.509865
     21          6           0       -3.625399    0.130891    2.795686
     22          6           0       -3.471660    0.076371    4.201594
     23          1           0       -2.483488   -0.064650    4.635271
     24          6           0       -4.560154    0.237861    5.049123
     25          1           0       -4.408621    0.190626    6.127953
     26          6           0       -5.836124    0.471869    4.530861
     27          6           0       -6.001356    0.572173    3.147413
     28          1           0       -6.984646    0.788510    2.728525
     29          6           0       -4.918273    0.411870    2.292793
     30          1           0       -5.069526    0.536013    1.222132
     31          1           0       -6.688700    0.595820    5.198721
 ---------------------------------------------------------------------

 Alpha  occ. eigenvalues --  -25.22050 -25.21320 -14.79945 -14.79944 -10.63808
 Alpha  occ. eigenvalues --  -10.60081 -10.60078 -10.59919 -10.59919 -10.59350
 Alpha  occ. eigenvalues --  -10.58079 -10.58076 -10.57951 -10.57153 -10.57149
 Alpha  occ. eigenvalues --  -10.56853 -10.56852 -10.55371 -10.55371  -7.13445
 Alpha  occ. eigenvalues --   -1.32182  -1.28944  -1.11195  -1.08881  -0.99161
 Alpha  occ. eigenvalues --   -0.93371  -0.89403  -0.87871  -0.86320  -0.85662
 Alpha  occ. eigenvalues --   -0.82061  -0.76817  -0.70989  -0.70309  -0.69783
 Alpha  occ. eigenvalues --   -0.67026  -0.65995  -0.64995  -0.62186  -0.61540
 Alpha  occ. eigenvalues --   -0.60391  -0.58080  -0.57320  -0.54321  -0.54044
 Alpha  occ. eigenvalues --   -0.53186  -0.52293  -0.51706  -0.50522  -0.49925
 Alpha  occ. eigenvalues --   -0.49742  -0.49290  -0.48381  -0.47036  -0.46874
 Alpha  occ. eigenvalues --   -0.46514  -0.45842  -0.45727  -0.44828  -0.44691
 Alpha  occ. eigenvalues --   -0.42827  -0.41900  -0.40986  -0.37784  -0.32848
 Alpha  occ. eigenvalues --   -0.32783  -0.31478  -0.30291  -0.25831
 Alpha virt. eigenvalues --   -0.10543   0.00798   0.01506   0.07230   0.07273
 Alpha virt. eigenvalues --    0.09722   0.09923   0.10686   0.12654   0.12677
 Alpha virt. eigenvalues --    0.14298   0.14752   0.15879   0.16485   0.16705

 Mulliken charges:
               1
     1  B    0.194645
     2  N   -0.164143
     3  C    0.103877
     4  H    0.059601
     5  C   -0.023630
     6  H    0.033461
     7  C   -0.049389
     8  H    0.030144
     9  C    0.129787
    10  C   -0.021134
    11  N   -0.163831
    12  C    0.103811
    13  H    0.059604
    14  C   -0.023510
    15  H    0.033481
    16  C   -0.049496
    17  H    0.030021
    18  C    0.129575
    19  F   -0.229493
    20  F   -0.232749
    21  C    0.034838
    22  C   -0.047227
    23  H    0.012742
    24  C    0.008845
    25  H    0.022312
    26  C   -0.001148
    27  C    0.008850
    28  H    0.022355
    29  C   -0.047097
    30  H    0.013036
    31  H    0.021861
 Sum of Mulliken charges =  -0.00000

 Dipole moment (field-independent basis, Debye):
    X=             -2.9847    Y=             -4.0467    Z=              1.5723  Tot=              5.2684
 Quadrupole moment (field-independent basis, Debye-Ang):
   XX=            -87.7639   YY=           -123.4795   ZZ=            -88.8304
   XY=             -0.1930   XZ=             -0.2788   YZ=             -6.0540

 Normal termination of Gaussian 16 at Mon Jan 31 15:30:32 2022.
