 Gaussian 16, Revision C.01,
 Gaussian 16:  ES64L-G16RevC.01  3-Jul-2019

 ----------------------------------------------------------------------
 #p m062x cc-pvdz scrf=(cpcm,solvent=Methanol) td=(nstate=6,root=1) opt
 =tight nosymm density=all int=ultrafine fchk
 ----------------------------------------------------------------------

 -----------------------------------
 BDP-phenyl, optimized S1 in toluene
 -----------------------------------
 Symbolic Z-matrix:
 Charge =  0 Multiplicity = 1

 SCF Done:  E(RM062X) =  -912.191393487     A.U. after   13 cycles
 Total Energy, E(TD-HF/TD-DFT) =  -912.095338280
 SCF Done:  E(RM062X) =  -912.191685289     A.U. after   10 cycles
 Total Energy, E(TD-HF/TD-DFT) =  -912.095442536
 SCF Done:  E(RM062X) =  -912.191821974     A.U. after    9 cycles
 Total Energy, E(TD-HF/TD-DFT) =  -912.095464868
 SCF Done:  E(RM062X) =  -912.191877527     A.U. after    8 cycles
 Total Energy, E(TD-HF/TD-DFT) =  -912.095471675
 SCF Done:  E(RM062X) =  -912.191927888     A.U. after    8 cycles
 Total Energy, E(TD-HF/TD-DFT) =  -912.095475583
 SCF Done:  E(RM062X) =  -912.191979933     A.U. after    9 cycles
 Total Energy, E(TD-HF/TD-DFT) =  -912.095478371
 SCF Done:  E(RM062X) =  -912.192003011     A.U. after    8 cycles
 Total Energy, E(TD-HF/TD-DFT) =  -912.095479746
 SCF Done:  E(RM062X) =  -912.192017013     A.U. after    8 cycles
 Total Energy, E(TD-HF/TD-DFT) =  -912.095480688
 SCF Done:  E(RM062X) =  -912.192016669     A.U. after    7 cycles
 Total Energy, E(TD-HF/TD-DFT) =  -912.095480922
 SCF Done:  E(RM062X) =  -912.192015396     A.U. after    6 cycles
 Total Energy, E(TD-HF/TD-DFT) =  -912.095480947
 SCF Done:  E(RM062X) =  -912.192013164     A.U. after    5 cycles
 Total Energy, E(TD-HF/TD-DFT) =  -912.095480967
 SCF Done:  E(RM062X) =  -912.192012589     A.U. after    5 cycles
 Total Energy, E(TD-HF/TD-DFT) =  -912.095480959
 SCF Done:  E(RM062X) =  -912.192012452     A.U. after    3 cycles

 Excitation energies and oscillator strengths:

 Excited state symmetry could not be determined.
 Excited State   1:      Singlet-?Sym    2.6268 eV  472.01 nm  f=0.6576  <S**2>=0.000
      69 -> 70         0.70063
 This state for optimization and/or second-order correction.
 Total Energy, E(TD-HF/TD-DFT) =  -912.095480965
 Copying the excited state density for this state as the 1-particle RhoCI density.

 Excited state symmetry could not be determined.
 Excited State   2:      Singlet-?Sym    3.8254 eV  324.10 nm  f=0.4975  <S**2>=0.000
      68 -> 70         0.69823

 Excited state symmetry could not be determined.
 Excited State   3:      Singlet-?Sym    3.9294 eV  315.53 nm  f=0.1068  <S**2>=0.000
      66 -> 70        -0.42391
      67 -> 70         0.55862

 Excited state symmetry could not be determined.
 Excited State   4:      Singlet-?Sym    4.2102 eV  294.49 nm  f=0.0681  <S**2>=0.000
      65 -> 70         0.68768
      66 -> 70        -0.11625

 Excited state symmetry could not be determined.
 Excited State   5:      Singlet-?Sym    4.2970 eV  288.53 nm  f=0.0113  <S**2>=0.000
      65 -> 70        -0.14255
      66 -> 70        -0.54235
      67 -> 70        -0.40960

 Excited state symmetry could not be determined.
 Excited State   6:      Singlet-?Sym    5.5573 eV  223.10 nm  f=0.1719  <S**2>=0.000
      63 -> 70         0.11060
      64 -> 70         0.67167

 Optimization completed.
    -- Stationary point found.

                          Input orientation:
 ---------------------------------------------------------------------
 Center     Atomic      Atomic             Coordinates (Angstroms)
 Number     Number       Type             X           Y           Z
 ---------------------------------------------------------------------
      1          5           0       -0.015508   -0.251329    0.010853
      2          7           0        0.001333   -0.067634    1.543299
      3          6           0        1.097138    0.036889    2.305180
      4          1           0        2.089059    0.036423    1.857800
      5          6           0        0.725326    0.144721    3.672492
      6          1           0        1.416349    0.248181    4.504263
      7          6           0       -0.660003    0.108561    3.722355
      8          1           0       -1.296891    0.197829    4.596965
      9          6           0       -1.123742   -0.026529    2.378337
     10          6           0       -2.445471   -0.032722    1.851099
     11          7           0       -1.472993    0.044452   -0.409175
     12          6           0       -1.900528    0.155079   -1.672926
     13          1           0       -1.195082    0.163190   -2.501457
     14          6           0       -3.319151    0.224870   -1.698442
     15          1           0       -3.927693    0.313381   -2.593928
     16          6           0       -3.755382    0.148484   -0.384251
     17          1           0       -4.779854    0.156689   -0.026754
     18          6           0       -2.591925    0.046276    0.438523
     19          9           0        0.865698    0.640013   -0.600594
     20          9           0        0.332058   -1.563775   -0.333106
     21          6           0       -3.608646   -0.047028    2.752623
     22          6           0       -3.673291   -0.971056    3.810377
     23          1           0       -2.866025   -1.693857    3.940946
     24          6           0       -4.767725   -0.988625    4.670951
     25          1           0       -4.805334   -1.718968    5.479886
     26          6           0       -5.815387   -0.082997    4.494752
     27          6           0       -5.759636    0.842594    3.451828
     28          1           0       -6.567593    1.561998    3.314550
     29          6           0       -4.667560    0.862393    2.587618
     30          1           0       -4.617243    1.609944    1.794707
     31          1           0       -6.671704   -0.097448    5.169651
 ---------------------------------------------------------------------

 Alpha  occ. eigenvalues --  -25.21565 -25.21172 -14.80464 -14.80462 -10.62741
 Alpha  occ. eigenvalues --  -10.60743 -10.60729 -10.60278 -10.60213 -10.58735
 Alpha  occ. eigenvalues --  -10.57365 -10.57351 -10.57334 -10.57284 -10.56913
 Alpha  occ. eigenvalues --  -10.56712 -10.56697 -10.55920 -10.55880  -7.13571
 Alpha  occ. eigenvalues --   -1.31858  -1.28483  -1.11323  -1.09293  -0.98670
 Alpha  occ. eigenvalues --   -0.93132  -0.89799  -0.88384  -0.85741  -0.85201
 Alpha  occ. eigenvalues --   -0.82537  -0.76584  -0.70497  -0.70274  -0.69846
 Alpha  occ. eigenvalues --   -0.66816  -0.66543  -0.65954  -0.62174  -0.60901
 Alpha  occ. eigenvalues --   -0.60086  -0.57688  -0.57087  -0.54400  -0.53740
 Alpha  occ. eigenvalues --   -0.53229  -0.52238  -0.51476  -0.50515  -0.50268
 Alpha  occ. eigenvalues --   -0.49797  -0.49615  -0.48237  -0.47037  -0.46844
 Alpha  occ. eigenvalues --   -0.46518  -0.45573  -0.45339  -0.45084  -0.44490
 Alpha  occ. eigenvalues --   -0.42113  -0.41859  -0.41269  -0.37241  -0.33064
 Alpha  occ. eigenvalues --   -0.32394  -0.32034  -0.31196  -0.26641
 Alpha virt. eigenvalues --   -0.09070   0.01054   0.01226   0.05753   0.07449
 Alpha virt. eigenvalues --    0.09308   0.10578   0.12477   0.12630   0.13486
 Alpha virt. eigenvalues --    0.14120   0.14635   0.15624   0.15906   0.16952

 Mulliken charges:
               1
     1  B    0.169059
     2  N   -0.179906
     3  C    0.105000
     4  H    0.063971
     5  C   -0.009183
     6  H    0.033525
     7  C   -0.039763
     8  H    0.023941
     9  C    0.137244
    10  C    0.049148
    11  N   -0.183642
    12  C    0.106314
    13  H    0.064259
    14  C   -0.008806
    15  H    0.033527
    16  C   -0.045608
    17  H    0.025154
    18  C    0.140333
    19  F   -0.241574
    20  F   -0.236755
    21  C   -0.080781
    22  C   -0.009698
    23  H    0.014511
    24  C    0.003343
    25  H    0.023951
    26  C   -0.008573
    27  C    0.002980
    28  H    0.023959
    29  C   -0.015091
    30  H    0.016611
    31  H    0.022550
 Sum of Mulliken charges =  -0.00000

 Dipole moment (field-independent basis, Debye):
    X=             -4.1185    Y=              1.3480    Z=              3.2078  Tot=              5.3916
 Quadrupole moment (field-independent basis, Debye-Ang):
   XX=            -87.2464   YY=           -118.7478   ZZ=            -87.5705
   XY=             -3.1581   XZ=             -1.6765   YZ=             -3.5474

 Normal termination of Gaussian 16 at Mon Jan 31 15:12:45 2022.
