 Gaussian 16, Revision C.01,
 Gaussian 16:  ES64L-G16RevC.01  3-Jul-2019

 ----------------------------------------------------------------------
 #p m062x cc-pvdz scrf=(cpcm,solvent=Acetone) td=(nstate=6,root=1) opt=
 tight nosymm density=all int=ultrafine fchk
 ----------------------------------------------------------------------

 -----------------------------------
 BDP-phenyl, optimized S1 in toluene
 -----------------------------------
 Symbolic Z-matrix:
 Charge =  0 Multiplicity = 1

 SCF Done:  E(RM062X) =  -912.191125755     A.U. after   13 cycles
 Total Energy, E(TD-HF/TD-DFT) =  -912.094776080
 SCF Done:  E(RM062X) =  -912.191404855     A.U. after   10 cycles
 Total Energy, E(TD-HF/TD-DFT) =  -912.094870366
 SCF Done:  E(RM062X) =  -912.191536461     A.U. after    9 cycles
 Total Energy, E(TD-HF/TD-DFT) =  -912.094890622
 SCF Done:  E(RM062X) =  -912.191590116     A.U. after    8 cycles
 Total Energy, E(TD-HF/TD-DFT) =  -912.094896848
 SCF Done:  E(RM062X) =  -912.191639110     A.U. after    8 cycles
 Total Energy, E(TD-HF/TD-DFT) =  -912.094900442
 SCF Done:  E(RM062X) =  -912.191689840     A.U. after    9 cycles
 Total Energy, E(TD-HF/TD-DFT) =  -912.094903016
 SCF Done:  E(RM062X) =  -912.191712130     A.U. after    8 cycles
 Total Energy, E(TD-HF/TD-DFT) =  -912.094904277
 SCF Done:  E(RM062X) =  -912.191725475     A.U. after    8 cycles
 Total Energy, E(TD-HF/TD-DFT) =  -912.094905136
 SCF Done:  E(RM062X) =  -912.191725195     A.U. after    7 cycles
 Total Energy, E(TD-HF/TD-DFT) =  -912.094905348
 SCF Done:  E(RM062X) =  -912.191723982     A.U. after    6 cycles
 Total Energy, E(TD-HF/TD-DFT) =  -912.094905372
 SCF Done:  E(RM062X) =  -912.191721842     A.U. after    5 cycles
 Total Energy, E(TD-HF/TD-DFT) =  -912.094905391
 SCF Done:  E(RM062X) =  -912.191721268     A.U. after    5 cycles
 Total Energy, E(TD-HF/TD-DFT) =  -912.094905383
 SCF Done:  E(RM062X) =  -912.191721146     A.U. after    3 cycles
 Total Energy, E(TD-HF/TD-DFT) =  -912.094905389
 SCF Done:  E(RM062X) =  -912.191720942     A.U. after    3 cycles
 Total Energy, E(TD-HF/TD-DFT) =  -912.094905414
 SCF Done:  E(RM062X) =  -912.191720728     A.U. after    4 cycles
 Total Energy, E(TD-HF/TD-DFT) =  -912.094905409
 SCF Done:  E(RM062X) =  -912.191721011     A.U. after    4 cycles

 Excitation energies and oscillator strengths:

 Excited state symmetry could not be determined.
 Excited State   1:      Singlet-?Sym    2.6345 eV  470.62 nm  f=0.6498  <S**2>=0.000
      69 -> 70         0.70057
 This state for optimization and/or second-order correction.
 Total Energy, E(TD-HF/TD-DFT) =  -912.094905394
 Copying the excited state density for this state as the 1-particle RhoCI density.

 Excited state symmetry could not be determined.
 Excited State   2:      Singlet-?Sym    3.8326 eV  323.50 nm  f=0.4931  <S**2>=0.000
      68 -> 70         0.69810

 Excited state symmetry could not be determined.
 Excited State   3:      Singlet-?Sym    3.9293 eV  315.54 nm  f=0.1070  <S**2>=0.000
      66 -> 70         0.39940
      67 -> 70         0.57610

 Excited state symmetry could not be determined.
 Excited State   4:      Singlet-?Sym    4.2094 eV  294.54 nm  f=0.0674  <S**2>=0.000
      65 -> 70         0.68851
      66 -> 70         0.11637

 Excited state symmetry could not be determined.
 Excited State   5:      Singlet-?Sym    4.3034 eV  288.11 nm  f=0.0110  <S**2>=0.000
      65 -> 70        -0.13821
      66 -> 70         0.55997
      67 -> 70        -0.38637

 Excited state symmetry could not be determined.
 Excited State   6:      Singlet-?Sym    5.5607 eV  222.97 nm  f=0.1690  <S**2>=0.000
      63 -> 70         0.11205
      64 -> 70         0.67113

 Optimization completed.
    -- Stationary point found.

                          Input orientation:
 ---------------------------------------------------------------------
 Center     Atomic      Atomic             Coordinates (Angstroms)
 Number     Number       Type             X           Y           Z
 ---------------------------------------------------------------------
      1          5           0       -0.015708   -0.254111    0.010891
      2          7           0        0.001197   -0.068449    1.543235
      3          6           0        1.096891    0.037101    2.304827
      4          1           0        2.088683    0.036394    1.857199
      5          6           0        0.725086    0.146202    3.672064
      6          1           0        1.416039    0.250635    4.503766
      7          6           0       -0.660319    0.109811    3.722011
      8          1           0       -1.297225    0.200107    4.596500
      9          6           0       -1.123959   -0.026719    2.378314
     10          6           0       -2.445779   -0.033033    1.851033
     11          7           0       -1.472786    0.044530   -0.409100
     12          6           0       -1.899779    0.156501   -1.672734
     13          1           0       -1.193928    0.164448   -2.500901
     14          6           0       -3.318352    0.227426   -1.698582
     15          1           0       -3.926659    0.316943   -2.594124
     16          6           0       -3.755051    0.150347   -0.384493
     17          1           0       -4.779628    0.158888   -0.027338
     18          6           0       -2.592037    0.046668    0.438394
     19          9           0        0.867078    0.634771   -0.601403
     20          9           0        0.328528   -1.567654   -0.331210
     21          6           0       -3.608755   -0.047486    2.752565
     22          6           0       -3.672657   -0.970909    3.810945
     23          1           0       -2.864893   -1.693113    3.941706
     24          6           0       -4.766962   -0.988751    4.671616
     25          1           0       -4.804010   -1.718716    5.480920
     26          6           0       -5.815257   -0.083933    4.495074
     27          6           0       -5.760227    0.841124    3.451654
     28          1           0       -6.568626    1.559996    3.314173
     29          6           0       -4.668345    0.861139    2.587253
     30          1           0       -4.618492    1.608424    1.794076
     31          1           0       -6.671476   -0.098584    5.170091
 ---------------------------------------------------------------------

 Alpha  occ. eigenvalues --  -25.21516 -25.21117 -14.80442 -14.80440 -10.62735
 Alpha  occ. eigenvalues --  -10.60728 -10.60713 -10.60267 -10.60201 -10.58747
 Alpha  occ. eigenvalues --  -10.57382 -10.57367 -10.57327 -10.57275 -10.56935
 Alpha  occ. eigenvalues --  -10.56734 -10.56718 -10.55914 -10.55873  -7.13530
 Alpha  occ. eigenvalues --   -1.31809  -1.28434  -1.11305  -1.09276  -0.98683
 Alpha  occ. eigenvalues --   -0.93134  -0.89784  -0.88374  -0.85760  -0.85209
 Alpha  occ. eigenvalues --   -0.82525  -0.76582  -0.70514  -0.70259  -0.69843
 Alpha  occ. eigenvalues --   -0.66815  -0.66530  -0.65945  -0.62160  -0.60911
 Alpha  occ. eigenvalues --   -0.60049  -0.57653  -0.57087  -0.54390  -0.53751
 Alpha  occ. eigenvalues --   -0.53205  -0.52235  -0.51461  -0.50490  -0.50258
 Alpha  occ. eigenvalues --   -0.49802  -0.49623  -0.48220  -0.47032  -0.46830
 Alpha  occ. eigenvalues --   -0.46487  -0.45556  -0.45304  -0.45061  -0.44491
 Alpha  occ. eigenvalues --   -0.42084  -0.41878  -0.41284  -0.37239  -0.33048
 Alpha  occ. eigenvalues --   -0.32397  -0.32034  -0.31203  -0.26627
 Alpha virt. eigenvalues --   -0.09062   0.01042   0.01209   0.05772   0.07463
 Alpha virt. eigenvalues --    0.09300   0.10562   0.12475   0.12616   0.13487
 Alpha virt. eigenvalues --    0.14102   0.14630   0.15611   0.15897   0.16941

 Mulliken charges:
               1
     1  B    0.169212
     2  N   -0.179636
     3  C    0.105036
     4  H    0.063734
     5  C   -0.009216
     6  H    0.033155
     7  C   -0.039699
     8  H    0.023688
     9  C    0.137090
    10  C    0.049440
    11  N   -0.183434
    12  C    0.106363
    13  H    0.064027
    14  C   -0.008836
    15  H    0.033153
    16  C   -0.045589
    17  H    0.024884
    18  C    0.140312
    19  F   -0.241141
    20  F   -0.236104
    21  C   -0.080505
    22  C   -0.009616
    23  H    0.014406
    24  C    0.003551
    25  H    0.023675
    26  C   -0.008389
    27  C    0.003180
    28  H    0.023663
    29  C   -0.015100
    30  H    0.016437
    31  H    0.022262
 Sum of Mulliken charges =  -0.00000

 Dipole moment (field-independent basis, Debye):
    X=             -4.0972    Y=              1.3534    Z=              3.1931  Tot=              5.3679
 Quadrupole moment (field-independent basis, Debye-Ang):
   XX=            -87.3660   YY=           -118.7567   ZZ=            -87.6768
   XY=             -3.1506   XZ=             -1.6675   YZ=             -3.5431

 Normal termination of Gaussian 16 at Tue Feb  1 14:48:50 2022.
