 Gaussian 16, Revision C.01,
 Gaussian 16:  ES64L-G16RevC.01  3-Jul-2019

 ----------------------------------------------------------------------
 #p m062x cc-pvdz scrf=(cpcm,solvent=Acetone) td=(nstate=6,root=1) opt=
 tight nosymm density=all int=ultrafine fchk
 ----------------------------------------------------------------------

 -----------------------------------
 BDP-phenyl, optimized R1 in toluene
 -----------------------------------
 Symbolic Z-matrix:
 Charge =  0 Multiplicity = 1

 SCF Done:  E(RM062X) =  -912.161599972     A.U. after   14 cycles
 Total Energy, E(TD-HF/TD-DFT) =  -912.091786685
 SCF Done:  E(RM062X) =  -912.163473107     A.U. after   11 cycles
 Total Energy, E(TD-HF/TD-DFT) =  -912.091946091
 SCF Done:  E(RM062X) =  -912.164281943     A.U. after   11 cycles
 Total Energy, E(TD-HF/TD-DFT) =  -912.091993860
 SCF Done:  E(RM062X) =  -912.164596803     A.U. after    9 cycles
 Total Energy, E(TD-HF/TD-DFT) =  -912.092005893
 SCF Done:  E(RM062X) =  -912.164693275     A.U. after    8 cycles
 Total Energy, E(TD-HF/TD-DFT) =  -912.092007472
 SCF Done:  E(RM062X) =  -912.164699245     A.U. after    7 cycles
 Total Energy, E(TD-HF/TD-DFT) =  -912.092008700
 SCF Done:  E(RM062X) =  -912.164677964     A.U. after    7 cycles
 Total Energy, E(TD-HF/TD-DFT) =  -912.092008916
 SCF Done:  E(RM062X) =  -912.164677342     A.U. after    6 cycles
 Total Energy, E(TD-HF/TD-DFT) =  -912.092008987
 SCF Done:  E(RM062X) =  -912.164679909     A.U. after    5 cycles
 Total Energy, E(TD-HF/TD-DFT) =  -912.092009012
 SCF Done:  E(RM062X) =  -912.164680222     A.U. after    5 cycles
 Total Energy, E(TD-HF/TD-DFT) =  -912.092009010
 SCF Done:  E(RM062X) =  -912.164680767     A.U. after    5 cycles
 Total Energy, E(TD-HF/TD-DFT) =  -912.092009003
 SCF Done:  E(RM062X) =  -912.164680180     A.U. after    7 cycles
 Total Energy, E(TD-HF/TD-DFT) =  -912.092008995
 SCF Done:  E(RM062X) =  -912.164680547     A.U. after    4 cycles

 Excitation energies and oscillator strengths:

 Excited state symmetry could not be determined.
 Excited State   1:      Singlet-?Sym    1.9775 eV  626.98 nm  f=0.3293  <S**2>=0.000
      69 -> 70         0.70127
 This state for optimization and/or second-order correction.
 Total Energy, E(TD-HF/TD-DFT) =  -912.092008996
 Copying the excited state density for this state as the 1-particle RhoCI density.

 Excited state symmetry could not be determined.
 Excited State   2:      Singlet-?Sym    3.1581 eV  392.59 nm  f=0.7521  <S**2>=0.000
      68 -> 70         0.69984

 Excited state symmetry could not be determined.
 Excited State   3:      Singlet-?Sym    3.3490 eV  370.21 nm  f=0.0369  <S**2>=0.000
      67 -> 70         0.70234

 Excited state symmetry could not be determined.
 Excited State   4:      Singlet-?Sym    3.7716 eV  328.73 nm  f=0.0278  <S**2>=0.000
      65 -> 70         0.49367
      66 -> 70         0.49737

 Excited state symmetry could not be determined.
 Excited State   5:      Singlet-?Sym    3.8932 eV  318.46 nm  f=0.0414  <S**2>=0.000
      65 -> 70        -0.49288
      66 -> 70         0.48911

 Excited state symmetry could not be determined.
 Excited State   6:      Singlet-?Sym    5.3032 eV  233.79 nm  f=0.0558  <S**2>=0.000
      64 -> 70         0.67832

 Optimization completed.
    -- Stationary point found.

                          Input orientation:
 ---------------------------------------------------------------------
 Center     Atomic      Atomic             Coordinates (Angstroms)
 Number     Number       Type             X           Y           Z
 ---------------------------------------------------------------------
      1          5           0       -0.208776    0.979415    0.343958
      2          7           0       -0.054796    0.097011    1.609965
      3          6           0        1.059148   -0.402037    2.151240
      4          1           0        2.034163   -0.174059    1.726772
      5          6           0        0.724008   -1.206138    3.270877
      6          1           0        1.432245   -1.730583    3.905778
      7          6           0       -0.660297   -1.191970    3.382686
      8          1           0       -1.267869   -1.740995    4.095058
      9          6           0       -1.156659   -0.349474    2.347620
     10          6           0       -2.493306   -0.022520    1.909846
     11          7           0       -1.506437    0.425083   -0.298755
     12          6           0       -1.787676    0.241214   -1.591101
     13          1           0       -1.076488    0.529907   -2.361631
     14          6           0       -3.070641   -0.350555   -1.718314
     15          1           0       -3.557931   -0.605544   -2.654968
     16          6           0       -3.561428   -0.539079   -0.432767
     17          1           0       -4.494128   -1.015961   -0.148370
     18          6           0       -2.584941   -0.027714    0.468695
     19          9           0       -0.370972    2.318620    0.697571
     20          9           0        0.871855    0.802630   -0.507999
     21          6           0       -3.625449    0.132419    2.795925
     22          6           0       -3.471441    0.078048    4.201922
     23          1           0       -2.482983   -0.062900    4.635090
     24          6           0       -4.559836    0.239566    5.049402
     25          1           0       -4.408358    0.192653    6.128254
     26          6           0       -5.835880    0.473321    4.531091
     27          6           0       -6.001382    0.573287    3.147608
     28          1           0       -6.984807    0.789427    2.728936
     29          6           0       -4.918490    0.412970    2.292914
     30          1           0       -5.069461    0.536595    1.222109
     31          1           0       -6.688396    0.597366    5.199009
 ---------------------------------------------------------------------

 Alpha  occ. eigenvalues --  -25.21967 -25.21230 -14.79903 -14.79902 -10.63797
 Alpha  occ. eigenvalues --  -10.60057 -10.60053 -10.59887 -10.59886 -10.59367
 Alpha  occ. eigenvalues --  -10.58111 -10.58108 -10.57995 -10.57194 -10.57190
 Alpha  occ. eigenvalues --  -10.56836 -10.56835 -10.55353 -10.55352  -7.13379
 Alpha  occ. eigenvalues --   -1.32101  -1.28865  -1.11163  -1.08848  -0.99187
 Alpha  occ. eigenvalues --   -0.93377  -0.89374  -0.87850  -0.86352  -0.85675
 Alpha  occ. eigenvalues --   -0.82036  -0.76814  -0.71017  -0.70305  -0.69756
 Alpha  occ. eigenvalues --   -0.67013  -0.65967  -0.64975  -0.62160  -0.61565
 Alpha  occ. eigenvalues --   -0.60324  -0.58057  -0.57288  -0.54299  -0.54063
 Alpha  occ. eigenvalues --   -0.53137  -0.52291  -0.51677  -0.50539  -0.49910
 Alpha  occ. eigenvalues --   -0.49718  -0.49255  -0.48364  -0.46984  -0.46858
 Alpha  occ. eigenvalues --   -0.46496  -0.45816  -0.45670  -0.44817  -0.44652
 Alpha  occ. eigenvalues --   -0.42866  -0.41861  -0.40996  -0.37782  -0.32823
 Alpha  occ. eigenvalues --   -0.32816  -0.31447  -0.30288  -0.25797
 Alpha virt. eigenvalues --   -0.10544   0.00766   0.01496   0.07277   0.07290
 Alpha virt. eigenvalues --    0.09696   0.09942   0.10655   0.12631   0.12667
 Alpha virt. eigenvalues --    0.14271   0.14748   0.15864   0.16480   0.16662

 Mulliken charges:
               1
     1  B    0.195302
     2  N   -0.163827
     3  C    0.103670
     4  H    0.059168
     5  C   -0.023740
     6  H    0.032830
     7  C   -0.049362
     8  H    0.029474
     9  C    0.129731
    10  C   -0.020953
    11  N   -0.163525
    12  C    0.103613
    13  H    0.059174
    14  C   -0.023629
    15  H    0.032851
    16  C   -0.049461
    17  H    0.029372
    18  C    0.129529
    19  F   -0.228355
    20  F   -0.232270
    21  C    0.035327
    22  C   -0.046648
    23  H    0.012586
    24  C    0.009186
    25  H    0.021895
    26  C   -0.000864
    27  C    0.009187
    28  H    0.021935
    29  C   -0.046519
    30  H    0.012860
    31  H    0.021463
 Sum of Mulliken charges =  -0.00000

 Dipole moment (field-independent basis, Debye):
    X=             -2.9739    Y=             -4.0195    Z=              1.5682  Tot=              5.2402
 Quadrupole moment (field-independent basis, Debye-Ang):
   XX=            -87.8862   YY=           -123.4545   ZZ=            -88.9911
   XY=             -0.2005   XZ=             -0.3649   YZ=             -6.0012

 Normal termination of Gaussian 16 at Tue Feb  1 14:43:03 2022.
