 Gaussian 16, Revision C.01,
 Gaussian 16:  ES64L-G16RevC.01  3-Jul-2019

 ----------------------------------------------------------------------
 #p m062x cc-pvdz scrf=(cpcm,solvent=n,n-DiMethylFormamide) td=(nstate=
 6,root=1) opt=tight nosymm density=all int=ultrafine fchk
 ----------------------------------------------------------------------

 -----------------------------------
 BDP-phenyl, optimized R1 in toluene
 -----------------------------------
 Symbolic Z-matrix:
 Charge =  0 Multiplicity = 1

 SCF Done:  E(RM062X) =  -912.161957132     A.U. after   13 cycles
 Total Energy, E(TD-HF/TD-DFT) =  -912.092310119
 SCF Done:  E(RM062X) =  -912.163944703     A.U. after   11 cycles
 Total Energy, E(TD-HF/TD-DFT) =  -912.092491227
 SCF Done:  E(RM062X) =  -912.164792222     A.U. after   11 cycles
 Total Energy, E(TD-HF/TD-DFT) =  -912.092545300
 SCF Done:  E(RM062X) =  -912.165123432     A.U. after    9 cycles
 Total Energy, E(TD-HF/TD-DFT) =  -912.092558929
 SCF Done:  E(RM062X) =  -912.165225512     A.U. after    8 cycles
 Total Energy, E(TD-HF/TD-DFT) =  -912.092560605
 SCF Done:  E(RM062X) =  -912.165228733     A.U. after    7 cycles
 Total Energy, E(TD-HF/TD-DFT) =  -912.092562093
 SCF Done:  E(RM062X) =  -912.165206922     A.U. after    7 cycles
 Total Energy, E(TD-HF/TD-DFT) =  -912.092562334
 SCF Done:  E(RM062X) =  -912.165206517     A.U. after    6 cycles
 Total Energy, E(TD-HF/TD-DFT) =  -912.092562409
 SCF Done:  E(RM062X) =  -912.165209009     A.U. after    5 cycles
 Total Energy, E(TD-HF/TD-DFT) =  -912.092562435
 SCF Done:  E(RM062X) =  -912.165209271     A.U. after    5 cycles
 Total Energy, E(TD-HF/TD-DFT) =  -912.092562435
 SCF Done:  E(RM062X) =  -912.165209874     A.U. after    5 cycles
 Total Energy, E(TD-HF/TD-DFT) =  -912.092562420
 SCF Done:  E(RM062X) =  -912.165209320     A.U. after    6 cycles
 Total Energy, E(TD-HF/TD-DFT) =  -912.092562434
 SCF Done:  E(RM062X) =  -912.165209651     A.U. after    4 cycles
 Total Energy, E(TD-HF/TD-DFT) =  -912.092562433
 SCF Done:  E(RM062X) =  -912.165209475     A.U. after    5 cycles
 Total Energy, E(TD-HF/TD-DFT) =  -912.092562425
 SCF Done:  E(RM062X) =  -912.165209486     A.U. after    5 cycles
 Total Energy, E(TD-HF/TD-DFT) =  -912.092562422
 SCF Done:  E(RM062X) =  -912.165209393     A.U. after    5 cycles

 Excitation energies and oscillator strengths:

 Excited state symmetry could not be determined.
 Excited State   1:      Singlet-?Sym    1.9768 eV  627.19 nm  f=0.3364  <S**2>=0.000
      69 -> 70         0.70124
 This state for optimization and/or second-order correction.
 Total Energy, E(TD-HF/TD-DFT) =  -912.092562424
 Copying the excited state density for this state as the 1-particle RhoCI density.

 Excited state symmetry could not be determined.
 Excited State   2:      Singlet-?Sym    3.1514 eV  393.43 nm  f=0.7609  <S**2>=0.000
      68 -> 70         0.69990

 Excited state symmetry could not be determined.
 Excited State   3:      Singlet-?Sym    3.3550 eV  369.55 nm  f=0.0374  <S**2>=0.000
      67 -> 70         0.70239

 Excited state symmetry could not be determined.
 Excited State   4:      Singlet-?Sym    3.7774 eV  328.22 nm  f=0.0287  <S**2>=0.000
      65 -> 70         0.69902

 Excited state symmetry could not be determined.
 Excited State   5:      Singlet-?Sym    3.8857 eV  319.08 nm  f=0.0422  <S**2>=0.000
      66 -> 70         0.69271

 Excited state symmetry could not be determined.
 Excited State   6:      Singlet-?Sym    5.3036 eV  233.78 nm  f=0.0545  <S**2>=0.000
      64 -> 70         0.67888

 Optimization completed.
    -- Stationary point found.

                          Input orientation:
 ---------------------------------------------------------------------
 Center     Atomic      Atomic             Coordinates (Angstroms)
 Number     Number       Type             X           Y           Z
 ---------------------------------------------------------------------
      1          5           0       -0.207736    0.976529    0.342616
      2          7           0       -0.054261    0.095723    1.609402
      3          6           0        1.059778   -0.401884    2.152118
      4          1           0        2.034957   -0.174609    1.727615
      5          6           0        0.724563   -1.203768    3.273352
      6          1           0        1.432809   -1.727045    3.909207
      7          6           0       -0.659639   -1.189577    3.384907
      8          1           0       -1.266982   -1.737578    4.098235
      9          6           0       -1.156259   -0.349388    2.347719
     10          6           0       -2.492761   -0.023275    1.909377
     11          7           0       -1.506029    0.423762   -0.299387
     12          6           0       -1.788439    0.241505   -1.591839
     13          1           0       -1.077349    0.529533   -2.362727
     14          6           0       -3.072560   -0.347864   -1.718786
     15          1           0       -3.560604   -0.601601   -2.655388
     16          6           0       -3.562978   -0.536378   -0.433227
     17          1           0       -4.496325   -1.012047   -0.148967
     18          6           0       -2.584898   -0.027613    0.468411
     19          9           0       -0.367797    2.316826    0.694760
     20          9           0        0.872736    0.798298   -0.509492
     21          6           0       -3.625409    0.131197    2.795733
     22          6           0       -3.471611    0.076724    4.201659
     23          1           0       -2.483379   -0.064267    4.635232
     24          6           0       -4.560084    0.238220    5.049180
     25          1           0       -4.408558    0.191064    6.128014
     26          6           0       -5.836072    0.472161    4.530909
     27          6           0       -6.001363    0.572381    3.147453
     28          1           0       -6.984684    0.788666    2.728610
     29          6           0       -4.918320    0.412074    2.292817
     30          1           0       -5.069521    0.536100    1.222126
     31          1           0       -6.688635    0.596132    5.198782
 ---------------------------------------------------------------------

 Alpha  occ. eigenvalues --  -25.22034 -25.21302 -14.79936 -14.79935 -10.63806
 Alpha  occ. eigenvalues --  -10.60076 -10.60073 -10.59913 -10.59912 -10.59353
 Alpha  occ. eigenvalues --  -10.58085 -10.58083 -10.57960 -10.57162 -10.57157
 Alpha  occ. eigenvalues --  -10.56849 -10.56849 -10.55368 -10.55367  -7.13432
 Alpha  occ. eigenvalues --   -1.32166  -1.28928  -1.11188  -1.08874  -0.99166
 Alpha  occ. eigenvalues --   -0.93372  -0.89397  -0.87867  -0.86326  -0.85665
 Alpha  occ. eigenvalues --   -0.82056  -0.76816  -0.70994  -0.70308  -0.69777
 Alpha  occ. eigenvalues --   -0.67023  -0.65989  -0.64991  -0.62181  -0.61545
 Alpha  occ. eigenvalues --   -0.60378  -0.58075  -0.57314  -0.54316  -0.54048
 Alpha  occ. eigenvalues --   -0.53176  -0.52293  -0.51700  -0.50525  -0.49922
 Alpha  occ. eigenvalues --   -0.49738  -0.49283  -0.48377  -0.47025  -0.46871
 Alpha  occ. eigenvalues --   -0.46510  -0.45837  -0.45716  -0.44826  -0.44683
 Alpha  occ. eigenvalues --   -0.42835  -0.41892  -0.40988  -0.37784  -0.32842
 Alpha  occ. eigenvalues --   -0.32790  -0.31472  -0.30290  -0.25824
 Alpha virt. eigenvalues --   -0.10543   0.00791   0.01504   0.07240   0.07277
 Alpha virt. eigenvalues --    0.09717   0.09927   0.10680   0.12650   0.12675
 Alpha virt. eigenvalues --    0.14293   0.14751   0.15876   0.16484   0.16696

 Mulliken charges:
               1
     1  B    0.194778
     2  N   -0.164079
     3  C    0.103834
     4  H    0.059513
     5  C   -0.023653
     6  H    0.033333
     7  C   -0.049384
     8  H    0.030009
     9  C    0.129776
    10  C   -0.021096
    11  N   -0.163769
    12  C    0.103771
    13  H    0.059517
    14  C   -0.023534
    15  H    0.033354
    16  C   -0.049489
    17  H    0.029890
    18  C    0.129565
    19  F   -0.229264
    20  F   -0.232652
    21  C    0.034937
    22  C   -0.047110
    23  H    0.012711
    24  C    0.008914
    25  H    0.022228
    26  C   -0.001090
    27  C    0.008918
    28  H    0.022270
    29  C   -0.046980
    30  H    0.013000
    31  H    0.021781
 Sum of Mulliken charges =  -0.00000

 Dipole moment (field-independent basis, Debye):
    X=             -2.9826    Y=             -4.0412    Z=              1.5715  Tot=              5.2627
 Quadrupole moment (field-independent basis, Debye-Ang):
   XX=            -87.7882   YY=           -123.4745   ZZ=            -88.8628
   XY=             -0.1946   XZ=             -0.2964   YZ=             -6.0432

 Normal termination of Gaussian 16 at Mon Jan 31 15:32:03 2022.
