 Gaussian 16, Revision C.01,
 Gaussian 16:  ES64L-G16RevC.01  3-Jul-2019

 ----------------------------------------------------------------------
 #p m062x cc-pvdz scrf=(cpcm,solvent=n,n-DiMethylFormamide) td=(nstate=
 6,root=1) opt=tight nosymm density=all int=ultrafine fchk
 ----------------------------------------------------------------------

 -----------------------------------
 BDP-phenyl, optimized S1 in toluene
 -----------------------------------
 Symbolic Z-matrix:
 Charge =  0 Multiplicity = 1

 SCF Done:  E(RM062X) =  -912.191449703     A.U. after   13 cycles
 Total Energy, E(TD-HF/TD-DFT) =  -912.095456548
 SCF Done:  E(RM062X) =  -912.191744147     A.U. after   10 cycles
 Total Energy, E(TD-HF/TD-DFT) =  -912.095562961
 SCF Done:  E(RM062X) =  -912.191881880     A.U. after    9 cycles
 Total Energy, E(TD-HF/TD-DFT) =  -912.095585741
 SCF Done:  E(RM062X) =  -912.191937822     A.U. after    8 cycles
 Total Energy, E(TD-HF/TD-DFT) =  -912.095592672
 SCF Done:  E(RM062X) =  -912.191988463     A.U. after    8 cycles
 Total Energy, E(TD-HF/TD-DFT) =  -912.095596648
 SCF Done:  E(RM062X) =  -912.192040774     A.U. after    9 cycles
 Total Energy, E(TD-HF/TD-DFT) =  -912.095599481
 SCF Done:  E(RM062X) =  -912.192064016     A.U. after    8 cycles
 Total Energy, E(TD-HF/TD-DFT) =  -912.095600880
 SCF Done:  E(RM062X) =  -912.192078161     A.U. after    8 cycles
 Total Energy, E(TD-HF/TD-DFT) =  -912.095601840
 SCF Done:  E(RM062X) =  -912.192077788     A.U. after    7 cycles
 Total Energy, E(TD-HF/TD-DFT) =  -912.095602078
 SCF Done:  E(RM062X) =  -912.192076510     A.U. after    6 cycles
 Total Energy, E(TD-HF/TD-DFT) =  -912.095602103
 SCF Done:  E(RM062X) =  -912.192074253     A.U. after    5 cycles
 Total Energy, E(TD-HF/TD-DFT) =  -912.095602124
 SCF Done:  E(RM062X) =  -912.192073680     A.U. after    5 cycles
 Total Energy, E(TD-HF/TD-DFT) =  -912.095602116
 SCF Done:  E(RM062X) =  -912.192073552     A.U. after    3 cycles
 Total Energy, E(TD-HF/TD-DFT) =  -912.095602122
 SCF Done:  E(RM062X) =  -912.192073369     A.U. after    3 cycles
 Total Energy, E(TD-HF/TD-DFT) =  -912.095602146
 SCF Done:  E(RM062X) =  -912.192073210     A.U. after    3 cycles
 Total Energy, E(TD-HF/TD-DFT) =  -912.095602090
 SCF Done:  E(RM062X) =  -912.192073490     A.U. after    4 cycles
 Total Energy, E(TD-HF/TD-DFT) =  -912.095602106
 SCF Done:  E(RM062X) =  -912.192073380     A.U. after    3 cycles
 Total Energy, E(TD-HF/TD-DFT) =  -912.095602149
 SCF Done:  E(RM062X) =  -912.192073467     A.U. after    3 cycles
 Total Energy, E(TD-HF/TD-DFT) =  -912.095602110
 SCF Done:  E(RM062X) =  -912.192073253     A.U. after    3 cycles
 Total Energy, E(TD-HF/TD-DFT) =  -912.095602169
 SCF Done:  E(RM062X) =  -912.192073388     A.U. after    3 cycles

 Excitation energies and oscillator strengths:

 Excited state symmetry could not be determined.
 Excited State   1:      Singlet-?Sym    2.6251 eV  472.30 nm  f=0.6593  <S**2>=0.000
      69 -> 70         0.70065
 This state for optimization and/or second-order correction.
 Total Energy, E(TD-HF/TD-DFT) =  -912.095602112
 Copying the excited state density for this state as the 1-particle RhoCI density.

 Excited state symmetry could not be determined.
 Excited State   2:      Singlet-?Sym    3.8239 eV  324.23 nm  f=0.4984  <S**2>=0.000
      68 -> 70         0.69826

 Excited state symmetry could not be determined.
 Excited State   3:      Singlet-?Sym    3.9294 eV  315.53 nm  f=0.1068  <S**2>=0.000
      66 -> 70        -0.42898
      67 -> 70         0.55479

 Excited state symmetry could not be determined.
 Excited State   4:      Singlet-?Sym    4.2103 eV  294.48 nm  f=0.0683  <S**2>=0.000
      65 -> 70         0.68746
      66 -> 70        -0.11631

 Excited state symmetry could not be determined.
 Excited State   5:      Singlet-?Sym    4.2957 eV  288.62 nm  f=0.0113  <S**2>=0.000
      65 -> 70        -0.14364
      66 -> 70        -0.53847
      67 -> 70        -0.41438

 Excited state symmetry could not be determined.
 Excited State   6:      Singlet-?Sym    5.5566 eV  223.13 nm  f=0.1725  <S**2>=0.000
      63 -> 70         0.11030
      64 -> 70         0.67177

 Optimization completed.
    -- Stationary point found.

                          Input orientation:
 ---------------------------------------------------------------------
 Center     Atomic      Atomic             Coordinates (Angstroms)
 Number     Number       Type             X           Y           Z
 ---------------------------------------------------------------------
      1          5           0       -0.015467   -0.250766    0.010846
      2          7           0        0.001364   -0.067467    1.543311
      3          6           0        1.097193    0.036851    2.305251
      4          1           0        2.089140    0.036433    1.857920
      5          6           0        0.725383    0.144428    3.672578
      6          1           0        1.416422    0.247689    4.504361
      7          6           0       -0.659930    0.108308    3.722426
      8          1           0       -1.296815    0.197365    4.597060
      9          6           0       -1.123695   -0.026488    2.378345
     10          6           0       -2.445405   -0.032656    1.851116
     11          7           0       -1.473035    0.044419   -0.409190
     12          6           0       -1.900685    0.154778   -1.672964
     13          1           0       -1.195324    0.162915   -2.501570
     14          6           0       -3.319318    0.224354   -1.698408
     15          1           0       -3.927908    0.312670   -2.593880
     16          6           0       -3.755448    0.148115   -0.384194
     17          1           0       -4.779898    0.156261   -0.026621
     18          6           0       -2.591902    0.046195    0.438554
     19          9           0        0.865411    0.641076   -0.600436
     20          9           0        0.332791   -1.562987   -0.333490
     21          6           0       -3.608622   -0.046932    2.752638
     22          6           0       -3.673425   -0.971090    3.810259
     23          1           0       -2.866261   -1.694014    3.940789
     24          6           0       -4.767887   -0.988604    4.670811
     25          1           0       -4.805615   -1.719025    5.479670
     26          6           0       -5.815419   -0.082810    4.494681
     27          6           0       -5.759518    0.842892    3.451859
     28          1           0       -6.567386    1.562402    3.314620
     29          6           0       -4.667398    0.862650    2.587693
     30          1           0       -4.616985    1.610256    1.794837
     31          1           0       -6.671759   -0.097222    5.169552
 ---------------------------------------------------------------------

 Alpha  occ. eigenvalues --  -25.21575 -25.21184 -14.80468 -14.80466 -10.62742
 Alpha  occ. eigenvalues --  -10.60746 -10.60732 -10.60281 -10.60216 -10.58733
 Alpha  occ. eigenvalues --  -10.57361 -10.57348 -10.57335 -10.57285 -10.56908
 Alpha  occ. eigenvalues --  -10.56707 -10.56692 -10.55921 -10.55882  -7.13580
 Alpha  occ. eigenvalues --   -1.31868  -1.28493  -1.11327  -1.09296  -0.98667
 Alpha  occ. eigenvalues --   -0.93132  -0.89802  -0.88387  -0.85737  -0.85199
 Alpha  occ. eigenvalues --   -0.82539  -0.76584  -0.70494  -0.70278  -0.69846
 Alpha  occ. eigenvalues --   -0.66816  -0.66546  -0.65956  -0.62177  -0.60899
 Alpha  occ. eigenvalues --   -0.60093  -0.57696  -0.57087  -0.54403  -0.53738
 Alpha  occ. eigenvalues --   -0.53234  -0.52239  -0.51479  -0.50520  -0.50271
 Alpha  occ. eigenvalues --   -0.49796  -0.49613  -0.48240  -0.47039  -0.46847
 Alpha  occ. eigenvalues --   -0.46525  -0.45577  -0.45345  -0.45089  -0.44489
 Alpha  occ. eigenvalues --   -0.42119  -0.41856  -0.41266  -0.37241  -0.33067
 Alpha  occ. eigenvalues --   -0.32394  -0.32033  -0.31195  -0.26644
 Alpha virt. eigenvalues --   -0.09072   0.01057   0.01230   0.05749   0.07447
 Alpha virt. eigenvalues --    0.09309   0.10582   0.12477   0.12633   0.13486
 Alpha virt. eigenvalues --    0.14123   0.14636   0.15627   0.15907   0.16954

 Mulliken charges:
               1
     1  B    0.169026
     2  N   -0.179963
     3  C    0.104992
     4  H    0.064020
     5  C   -0.009175
     6  H    0.033603
     7  C   -0.039775
     8  H    0.023995
     9  C    0.137276
    10  C    0.049084
    11  N   -0.183686
    12  C    0.106304
    13  H    0.064308
    14  C   -0.008799
    15  H    0.033606
    16  C   -0.045612
    17  H    0.025211
    18  C    0.140339
    19  F   -0.241663
    20  F   -0.236894
    21  C   -0.080840
    22  C   -0.009714
    23  H    0.014533
    24  C    0.003299
    25  H    0.024009
    26  C   -0.008612
    27  C    0.002939
    28  H    0.024021
    29  C   -0.015091
    30  H    0.016648
    31  H    0.022611
 Sum of Mulliken charges =  -0.00000

 Dipole moment (field-independent basis, Debye):
    X=             -4.1230    Y=              1.3469    Z=              3.2109  Tot=              5.3966
 Quadrupole moment (field-independent basis, Debye-Ang):
   XX=            -87.2212   YY=           -118.7460   ZZ=            -87.5482
   XY=             -3.1597   XZ=             -1.6783   YZ=             -3.5484

 Normal termination of Gaussian 16 at Mon Jan 31 15:41:21 2022.
