 Gaussian 16, Revision C.01,
 Gaussian 16:  ES64L-G16RevC.01  3-Jul-2019

 ----------------------------------------------------------------------
 #p m062x cc-pvdz scrf=(cpcm,solvent=TetraHydroFuran) td=(nstate=6,root
 =1) opt=tight nosymm density=all int=ultrafine fchk
 ----------------------------------------------------------------------

 -----------------------------------
 BDP-phenyl, optimized R1 in toluene
 -----------------------------------
 Symbolic Z-matrix:
 Charge =  0 Multiplicity = 1

 SCF Done:  E(RM062X) =  -912.160230883     A.U. after   14 cycles
 Total Energy, E(TD-HF/TD-DFT) =  -912.089782837
 SCF Done:  E(RM062X) =  -912.161658451     A.U. after   11 cycles
 Total Energy, E(TD-HF/TD-DFT) =  -912.089872539
 SCF Done:  E(RM062X) =  -912.162304744     A.U. after   11 cycles
 Total Energy, E(TD-HF/TD-DFT) =  -912.089899790
 SCF Done:  E(RM062X) =  -912.162553717     A.U. after    9 cycles
 Total Energy, E(TD-HF/TD-DFT) =  -912.089906653
 SCF Done:  E(RM062X) =  -912.162628183     A.U. after    8 cycles
 Total Energy, E(TD-HF/TD-DFT) =  -912.089907761
 SCF Done:  E(RM062X) =  -912.162641098     A.U. after    7 cycles
 Total Energy, E(TD-HF/TD-DFT) =  -912.089908293
 SCF Done:  E(RM062X) =  -912.162623494     A.U. after    6 cycles
 Total Energy, E(TD-HF/TD-DFT) =  -912.089908437
 SCF Done:  E(RM062X) =  -912.162622648     A.U. after    6 cycles
 Total Energy, E(TD-HF/TD-DFT) =  -912.089908464
 SCF Done:  E(RM062X) =  -912.162624978     A.U. after    5 cycles
 Total Energy, E(TD-HF/TD-DFT) =  -912.089908478
 SCF Done:  E(RM062X) =  -912.162625317     A.U. after    5 cycles
 Total Energy, E(TD-HF/TD-DFT) =  -912.089908472
 SCF Done:  E(RM062X) =  -912.162625906     A.U. after    5 cycles
 Total Energy, E(TD-HF/TD-DFT) =  -912.089908471
 SCF Done:  E(RM062X) =  -912.162625112     A.U. after    6 cycles
 Total Energy, E(TD-HF/TD-DFT) =  -912.089908476
 SCF Done:  E(RM062X) =  -912.162625515     A.U. after    4 cycles
 Total Energy, E(TD-HF/TD-DFT) =  -912.089908472
 SCF Done:  E(RM062X) =  -912.162624891     A.U. after    5 cycles
 Total Energy, E(TD-HF/TD-DFT) =  -912.089908472
 SCF Done:  E(RM062X) =  -912.162625316     A.U. after    5 cycles
 Total Energy, E(TD-HF/TD-DFT) =  -912.089908466
 SCF Done:  E(RM062X) =  -912.162624989     A.U. after    5 cycles

 Excitation energies and oscillator strengths:

 Excited state symmetry could not be determined.
 Excited State   1:      Singlet-?Sym    1.9787 eV  626.59 nm  f=0.3034  <S**2>=0.000
      69 -> 70         0.70141
 This state for optimization and/or second-order correction.
 Total Energy, E(TD-HF/TD-DFT) =  -912.089908472
 Copying the excited state density for this state as the 1-particle RhoCI density.

 Excited state symmetry could not be determined.
 Excited State   2:      Singlet-?Sym    3.1829 eV  389.53 nm  f=0.7187  <S**2>=0.000
      68 -> 70         0.69953

 Excited state symmetry could not be determined.
 Excited State   3:      Singlet-?Sym    3.3255 eV  372.83 nm  f=0.0350  <S**2>=0.000
      67 -> 70         0.70215

 Excited state symmetry could not be determined.
 Excited State   4:      Singlet-?Sym    3.7489 eV  330.72 nm  f=0.0245  <S**2>=0.000
      66 -> 70         0.70036

 Excited state symmetry could not be determined.
 Excited State   5:      Singlet-?Sym    3.9212 eV  316.19 nm  f=0.0385  <S**2>=0.000
      65 -> 70         0.69367
      68 -> 71        -0.10005

 Excited state symmetry could not be determined.
 Excited State   6:      Singlet-?Sym    5.3012 eV  233.88 nm  f=0.0611  <S**2>=0.000
      64 -> 70         0.67515
      69 -> 71        -0.10484

 Optimization completed.
    -- Stationary point found.

                          Input orientation:
 ---------------------------------------------------------------------
 Center     Atomic      Atomic             Coordinates (Angstroms)
 Number     Number       Type             X           Y           Z
 ---------------------------------------------------------------------
      1          5           0       -0.212838    0.990621    0.349261
      2          7           0       -0.056895    0.101684    1.611967
      3          6           0        1.056655   -0.402967    2.147667
      4          1           0        2.031044   -0.172426    1.723274
      5          6           0        0.721755   -1.215480    3.261163
      6          1           0        1.429922   -1.744497    3.892331
      7          6           0       -0.662925   -1.201162    3.374072
      8          1           0       -1.271395   -1.754010    4.082812
      9          6           0       -1.158261   -0.349841    2.347172
     10          6           0       -2.495416   -0.019547    1.911641
     11          7           0       -1.508093    0.430524   -0.296314
     12          6           0       -1.784680    0.240308   -1.588252
     13          1           0       -1.073107    0.531600   -2.357377
     14          6           0       -3.063031   -0.360927   -1.716513
     15          1           0       -3.547321   -0.620821   -2.653371
     16          6           0       -3.555228   -0.549612   -0.431031
     17          1           0       -4.485332   -1.031359   -0.146152
     18          6           0       -2.585093   -0.027984    0.469776
     19          9           0       -0.383231    2.325475    0.709001
     20          9           0        0.868359    0.819704   -0.502189
     21          6           0       -3.625634    0.137193    2.796689
     22          6           0       -3.470749    0.083495    4.202958
     23          1           0       -2.481381   -0.057015    4.634552
     24          6           0       -4.558836    0.245077    5.050301
     25          1           0       -4.407471    0.199323    6.129222
     26          6           0       -5.835152    0.477824    4.531861
     27          6           0       -6.001534    0.576545    3.148270
     28          1           0       -6.985418    0.791885    2.730256
     29          6           0       -4.919233    0.416205    2.293329
     30          1           0       -5.069407    0.538070    1.222079
     31          1           0       -6.687483    0.602119    5.199971
 ---------------------------------------------------------------------

 Alpha  occ. eigenvalues --  -25.21716 -25.20958 -14.79776 -14.79775 -10.63764
 Alpha  occ. eigenvalues --  -10.59983 -10.59979 -10.59790 -10.59786 -10.59421
 Alpha  occ. eigenvalues --  -10.58209 -10.58206 -10.58127 -10.57320 -10.57316
 Alpha  occ. eigenvalues --  -10.56785 -10.56780 -10.55297 -10.55294  -7.13177
 Alpha  occ. eigenvalues --   -1.31854  -1.28628  -1.11065  -1.08750  -0.99266
 Alpha  occ. eigenvalues --   -0.93396  -0.89283  -0.87787  -0.86448  -0.85716
 Alpha  occ. eigenvalues --   -0.81960  -0.76808  -0.71103  -0.70304  -0.69662
 Alpha  occ. eigenvalues --   -0.66973  -0.65884  -0.64914  -0.62081  -0.61641
 Alpha  occ. eigenvalues --   -0.60119  -0.58018  -0.57166  -0.54235  -0.54123
 Alpha  occ. eigenvalues --   -0.52988  -0.52288  -0.51590  -0.50606  -0.49861
 Alpha  occ. eigenvalues --   -0.49636  -0.49141  -0.48316  -0.46830  -0.46821
 Alpha  occ. eigenvalues --   -0.46447  -0.45736  -0.45483  -0.44784  -0.44525
 Alpha  occ. eigenvalues --   -0.42984  -0.41763  -0.41007  -0.37775  -0.32930
 Alpha  occ. eigenvalues --   -0.32734  -0.31349  -0.30276  -0.25692
 Alpha virt. eigenvalues --   -0.10546   0.00668   0.01465   0.07341   0.07419
 Alpha virt. eigenvalues --    0.09607   0.10000   0.10565   0.12558   0.12631
 Alpha virt. eigenvalues --    0.14186   0.14731   0.15826   0.16459   0.16533

 Mulliken charges:
               1
     1  B    0.197314
     2  N   -0.162875
     3  C    0.103055
     4  H    0.057832
     5  C   -0.024015
     6  H    0.030904
     7  C   -0.049237
     8  H    0.027417
     9  C    0.129580
    10  C   -0.020533
    11  N   -0.162600
    12  C    0.103042
    13  H    0.057857
    14  C   -0.023920
    15  H    0.030941
    16  C   -0.049312
    17  H    0.027384
    18  C    0.129399
    19  F   -0.224898
    20  F   -0.230769
    21  C    0.036820
    22  C   -0.044903
    23  H    0.012101
    24  C    0.010231
    25  H    0.020603
    26  C   -0.000009
    27  C    0.010225
    28  H    0.020633
    29  C   -0.044785
    30  H    0.012295
    31  H    0.020221
 Sum of Mulliken charges =  -0.00000

 Dipole moment (field-independent basis, Debye):
    X=             -2.9378    Y=             -3.9381    Z=              1.5513  Tot=              5.1523
 Quadrupole moment (field-independent basis, Debye-Ang):
   XX=            -88.2763   YY=           -123.3780   ZZ=            -89.4903
   XY=             -0.2202   XZ=             -0.6080   YZ=             -5.8429

 Normal termination of Gaussian 16 at Tue Feb  1 14:54:29 2022.
