 Gaussian 09, Revision D.01,
 Gaussian 09:  EM64L-G09RevD.01 24-Apr-2013

 ----------------------------------------------------------------------
 #p m062x cc-pvdz scrf=(cpcm,solvent=Toluene) td=(nstate=6,root=1) opt=
 tight nosymm density=all int=ultrafine fchk
 ----------------------------------------------------------------------

 ---------------------------------------------
 BODIPY-phenyl at around S1 minimum in toluene
 ---------------------------------------------
 Symbolic Z-matrix:
 Charge =  0 Multiplicity = 1

 SCF Done:  E(RM062X) =  -912.186585591     A.U. after   13 cycles
 SCF Done:  E(RM062X) =  -912.186599483     A.U. after    9 cycles
 SCF Done:  E(RM062X) =  -912.186649122     A.U. after    9 cycles
 SCF Done:  E(RM062X) =  -912.186622381     A.U. after    8 cycles
 SCF Done:  E(RM062X) =  -912.186620427     A.U. after    7 cycles
 SCF Done:  E(RM062X) =  -912.186615901     A.U. after    7 cycles
 SCF Done:  E(RM062X) =  -912.186608318     A.U. after    7 cycles
 SCF Done:  E(RM062X) =  -912.186594600     A.U. after    8 cycles
 SCF Done:  E(RM062X) =  -912.186593544     A.U. after    8 cycles
 SCF Done:  E(RM062X) =  -912.132757794     A.U. after   13 cycles
 SCF Done:  E(RM062X) =  -912.178720758     A.U. after   13 cycles
 SCF Done:  E(RM062X) =  -912.186055962     A.U. after   10 cycles
 SCF Done:  E(RM062X) =  -912.186020668     A.U. after   10 cycles
 SCF Done:  E(RM062X) =  -912.185949092     A.U. after    9 cycles
 SCF Done:  E(RM062X) =  -912.185942390     A.U. after    8 cycles
 SCF Done:  E(RM062X) =  -912.185948397     A.U. after    7 cycles
 SCF Done:  E(RM062X) =  -912.185940239     A.U. after    6 cycles
 SCF Done:  E(RM062X) =  -912.185935929     A.U. after    6 cycles
 SCF Done:  E(RM062X) =  -912.185933664     A.U. after    5 cycles
 SCF Done:  E(RM062X) =  -912.185932903     A.U. after    4 cycles

 Excitation energies and oscillator strengths:

 Excited state symmetry could not be determined.
 Excited State   1:      Singlet-?Sym    2.7678 eV  447.96 nm  f=0.5081  <S**2>=0.000
      69 -> 70        -0.69838
 This state for optimization and/or second-order correction.
 Total Energy, E(TD-HF/TD-KS) =  -912.084219716
 Copying the excited state density for this state as the 1-particle RhoCI density.

 Excited state symmetry could not be determined.
 Excited State   2:      Singlet-?Sym    3.9175 eV  316.49 nm  f=0.1226  <S**2>=0.000
      66 -> 70         0.11178
      67 -> 70        -0.65786
      68 -> 70         0.20716

 Excited state symmetry could not be determined.
 Excited State   3:      Singlet-?Sym    3.9650 eV  312.70 nm  f=0.4024  <S**2>=0.000
      67 -> 70         0.20531
      68 -> 70         0.66539

 Excited state symmetry could not be determined.
 Excited State   4:      Singlet-?Sym    4.1873 eV  296.10 nm  f=0.0538  <S**2>=0.000
      65 -> 70         0.63575
      66 -> 70        -0.29273

 Excited state symmetry could not be determined.
 Excited State   5:      Singlet-?Sym    4.4159 eV  280.76 nm  f=0.0086  <S**2>=0.000
      65 -> 70         0.28800
      66 -> 70         0.61737
      67 -> 70         0.11040
      68 -> 72         0.10415

 Excited state symmetry could not be determined.
 Excited State   6:      Singlet-?Sym    5.5027 eV  225.32 nm  f=0.0210  <S**2>=0.000
      69 -> 71         0.65748
      69 -> 72        -0.22248

 Optimization completed.
    -- Stationary point found.

                          Input orientation:
 ---------------------------------------------------------------------
 Center     Atomic      Atomic             Coordinates (Angstroms)
 Number     Number       Type             X           Y           Z
 ---------------------------------------------------------------------
      1          5           0       -0.022314   -0.318076    0.013326
      2          7           0       -0.001707   -0.085693    1.541792
      3          6           0        1.091803    0.044455    2.297107
      4          1           0        2.081188    0.038188    1.844910
      5          6           0        0.719696    0.182717    3.661938
      6          1           0        1.408889    0.309587    4.491930
      7          6           0       -0.667405    0.140073    3.713632
      8          1           0       -1.304943    0.252470    4.585053
      9          6           0       -1.128691   -0.029848    2.377234
     10          6           0       -2.452248   -0.040163    1.849047
     11          7           0       -1.467979    0.043992   -0.407485
     12          6           0       -1.882790    0.186621   -1.668830
     13          1           0       -1.168572    0.190570   -2.489452
     14          6           0       -3.299670    0.284113   -1.701663
     15          1           0       -3.902475    0.396698   -2.598289
     16          6           0       -3.746979    0.191894   -0.390067
     17          1           0       -4.773831    0.209893   -0.040610
     18          6           0       -2.594010    0.054270    0.435426
     19          9           0        0.895627    0.512622   -0.619808
     20          9           0        0.246848   -1.654425   -0.284657
     21          6           0       -3.611125   -0.057918    2.751186
     22          6           0       -3.659829   -0.970100    3.821089
     23          1           0       -2.842011   -1.680278    3.954782
     24          6           0       -4.751175   -0.994310    4.684132
     25          1           0       -4.776635   -1.717415    5.500070
     26          6           0       -5.812242   -0.105768    4.502054
     27          6           0       -5.771788    0.809705    3.449932
     28          1           0       -6.589016    1.518026    3.309473
     29          6           0       -4.684012    0.835107    2.581429
     30          1           0       -4.643713    1.578247    1.784107
     31          1           0       -6.666295   -0.125256    5.179633
 ---------------------------------------------------------------------

 Alpha  occ. eigenvalues --  -25.20639 -25.20090 -14.80038 -14.80035 -10.62623
 Alpha  occ. eigenvalues --  -10.60462 -10.60435 -10.60071 -10.59978 -10.58965
 Alpha  occ. eigenvalues --  -10.57702 -10.57663 -10.57354 -10.57201 -10.57145
 Alpha  occ. eigenvalues --  -10.57120 -10.57118 -10.55803 -10.55737  -7.12756
 Alpha  occ. eigenvalues --   -1.30925  -1.27560  -1.10974  -1.08967  -0.98922
 Alpha  occ. eigenvalues --   -0.93174  -0.89509  -0.88177  -0.86104  -0.85370
 Alpha  occ. eigenvalues --   -0.82305  -0.76557  -0.70832  -0.70145  -0.69654
 Alpha  occ. eigenvalues --   -0.66803  -0.66280  -0.65774  -0.61918  -0.61127
 Alpha  occ. eigenvalues --   -0.59364  -0.57424  -0.56683  -0.54238  -0.53958
 Alpha  occ. eigenvalues --   -0.52767  -0.52178  -0.51205  -0.50310  -0.50019
 Alpha  occ. eigenvalues --   -0.49885  -0.49516  -0.47955  -0.46910  -0.46691
 Alpha  occ. eigenvalues --   -0.45838  -0.45450  -0.44629  -0.44514  -0.44408
 Alpha  occ. eigenvalues --   -0.42201  -0.41771  -0.41299  -0.37223  -0.32772
 Alpha  occ. eigenvalues --   -0.32596  -0.31858  -0.31310  -0.26377
 Alpha virt. eigenvalues --   -0.08929   0.00828   0.00891   0.06128   0.07715
 Alpha virt. eigenvalues --    0.09058   0.10338   0.12279   0.12375   0.13450
 Alpha virt. eigenvalues --    0.13755   0.14480   0.15441   0.15725   0.16734

 Mulliken charges:
               1
     1  B    0.172275
     2  N   -0.174189
     3  C    0.105398
     4  H    0.058742
     5  C   -0.009348
     6  H    0.026177
     7  C   -0.038126
     8  H    0.018941
     9  C    0.134126
    10  C    0.053567
    11  N   -0.179494
    12  C    0.107161
    13  H    0.059098
    14  C   -0.008905
    15  H    0.026055
    16  C   -0.044979
    17  H    0.019672
    18  C    0.140543
    19  F   -0.232753
    20  F   -0.223082
    21  C   -0.074933
    22  C   -0.008048
    23  H    0.012089
    24  C    0.007754
    25  H    0.018156
    26  C   -0.004706
    27  C    0.007332
    28  H    0.017742
    29  C   -0.015415
    30  H    0.012663
    31  H    0.016487
 Sum of Mulliken charges =   0.00000

 Dipole moment (field-independent basis, Debye):
    X=             -3.6686    Y=              1.4824    Z=              2.8979  Tot=              4.9045
 Quadrupole moment (field-independent basis, Debye-Ang):
   XX=            -89.7228   YY=           -118.9438   ZZ=            -89.7207
   XY=             -3.0146   XZ=             -1.4143   YZ=             -3.4376

 Normal termination of Gaussian 09 at Fri Sep 28 20:26:22 2018.
