 Gaussian 09, Revision D.01,
 Gaussian 09:  EM64L-G09RevD.01 24-Apr-2013

 ----------------------------------------------------------------------
 #p m062x cc-pvdz scrf=(cpcm,solvent=Toluene) td=(nstate=6,root=1) opt=
 tight nosymm density=all int=ultrafine fchk
 ----------------------------------------------------------------------

 ----------------------------------------------
 BODIPY-phenyl at around S1R minimum in toluene
 ----------------------------------------------
 Symbolic Z-matrix:
 Charge =  0 Multiplicity = 1

 SCF Done:  E(RM062X) =  -912.156457692     A.U. after   14 cycles
 SCF Done:  E(RM062X) =  -912.156454905     A.U. after   11 cycles
 SCF Done:  E(RM062X) =  -912.156342486     A.U. after   10 cycles
 SCF Done:  E(RM062X) =  -912.156099557     A.U. after    9 cycles
 SCF Done:  E(RM062X) =  -912.156029257     A.U. after    8 cycles
 SCF Done:  E(RM062X) =  -912.156008125     A.U. after    7 cycles
 SCF Done:  E(RM062X) =  -912.155974243     A.U. after    7 cycles
 SCF Done:  E(RM062X) =  -912.155963476     A.U. after    6 cycles
 SCF Done:  E(RM062X) =  -912.155960901     A.U. after    5 cycles
 SCF Done:  E(RM062X) =  -912.155962811     A.U. after    5 cycles
 SCF Done:  E(RM062X) =  -912.155962974     A.U. after    5 cycles
 SCF Done:  E(RM062X) =  -912.155962895     A.U. after    5 cycles
 SCF Done:  E(RM062X) =  -912.155963043     A.U. after    5 cycles
 SCF Done:  E(RM062X) =  -912.155963175     A.U. after    4 cycles

 Excitation energies and oscillator strengths:

 Excited state symmetry could not be determined.
 Excited State   1:      Singlet-?Sym    1.9696 eV  629.49 nm  f=0.2323  <S**2>=0.000
      69 -> 70         0.70186
 This state for optimization and/or second-order correction.
 Total Energy, E(TD-HF/TD-KS) =  -912.083581971
 Copying the excited state density for this state as the 1-particle RhoCI density.

 Excited state symmetry could not be determined.
 Excited State   2:      Singlet-?Sym    3.2474 eV  381.79 nm  f=0.0299  <S**2>=0.000
      67 -> 70         0.70133

 Excited state symmetry could not be determined.
 Excited State   3:      Singlet-?Sym    3.2512 eV  381.34 nm  f=0.6196  <S**2>=0.000
      68 -> 70        -0.69829

 Excited state symmetry could not be determined.
 Excited State   4:      Singlet-?Sym    3.6737 eV  337.49 nm  f=0.0153  <S**2>=0.000
      66 -> 70         0.69913

 Excited state symmetry could not be determined.
 Excited State   5:      Singlet-?Sym    4.0023 eV  309.78 nm  f=0.0298  <S**2>=0.000
      65 -> 70         0.69125
      68 -> 71        -0.11283

 Excited state symmetry could not be determined.
 Excited State   6:      Singlet-?Sym    5.2737 eV  235.10 nm  f=0.0855  <S**2>=0.000
      69 -> 72        -0.68746

 Optimization completed.
    -- Stationary point found.

                          Input orientation:
 ---------------------------------------------------------------------
 Center     Atomic      Atomic             Coordinates (Angstroms)
 Number     Number       Type             X           Y           Z
 ---------------------------------------------------------------------
      1          5           0       -0.226459    1.026812    0.366463
      2          7           0       -0.063462    0.117158    1.618295
      3          6           0        1.048809   -0.405898    2.135222
      4          1           0        2.021194   -0.167721    1.710815
      5          6           0        0.714744   -1.245178    3.228518
      6          1           0        1.422671   -1.789411    3.846891
      7          6           0       -0.670943   -1.229853    3.345611
      8          1           0       -1.281919   -1.795257    4.042479
      9          6           0       -1.163278   -0.350078    2.345698
     10          6           0       -2.501871   -0.009279    1.917580
     11          7           0       -1.513186    0.447418   -0.288528
     12          6           0       -1.774374    0.235850   -1.578922
     13          1           0       -1.061486    0.534415   -2.343826
     14          6           0       -3.037583   -0.395268   -1.709952
     15          1           0       -3.511843   -0.671799   -2.647172
     16          6           0       -3.534609   -0.583147   -0.424714
     17          1           0       -4.456386   -1.080078   -0.138313
     18          6           0       -2.585327   -0.028326    0.473683
     19          9           0       -0.424564    2.347126    0.746029
     20          9           0        0.856740    0.876303   -0.483047
     21          6           0       -3.626401    0.153085    2.799581
     22          6           0       -3.469244    0.100324    4.206627
     23          1           0       -2.477342   -0.039565    4.633673
     24          6           0       -4.556616    0.261739    5.053379
     25          1           0       -4.405886    0.218510    6.132511
     26          6           0       -5.833553    0.492130    4.534417
     27          6           0       -6.002176    0.588139    3.150548
     28          1           0       -6.987290    0.801491    2.734377
     29          6           0       -4.921445    0.428118    2.295037
     30          1           0       -5.068829    0.545480    1.222494
     31          1           0       -6.685495    0.616763    5.202967
 ---------------------------------------------------------------------

 Alpha  occ. eigenvalues --  -25.20968 -25.20137 -14.79397 -14.79389 -10.63674
 Alpha  occ. eigenvalues --  -10.59766 -10.59756 -10.59596 -10.59503 -10.59487
 Alpha  occ. eigenvalues --  -10.58538 -10.58514 -10.58511 -10.57708 -10.57704
 Alpha  occ. eigenvalues --  -10.56629 -10.56616 -10.55125 -10.55113  -7.12572
 Alpha  occ. eigenvalues --   -1.31118  -1.27920  -1.10772  -1.08450  -0.99517
 Alpha  occ. eigenvalues --   -0.93467  -0.89008  -0.87633  -0.86707  -0.85843
 Alpha  occ. eigenvalues --   -0.81730  -0.76803  -0.71378  -0.70366  -0.69329
 Alpha  occ. eigenvalues --   -0.66846  -0.65638  -0.64721  -0.61890  -0.61847
 Alpha  occ. eigenvalues --   -0.59504  -0.58071  -0.56649  -0.54324  -0.54087
 Alpha  occ. eigenvalues --   -0.52548  -0.52295  -0.51329  -0.50897  -0.49685
 Alpha  occ. eigenvalues --   -0.49392  -0.48734  -0.48192  -0.46796  -0.46389
 Alpha  occ. eigenvalues --   -0.46290  -0.45447  -0.44870  -0.44693  -0.44092
 Alpha  occ. eigenvalues --   -0.43324  -0.41725  -0.40760  -0.37768  -0.33271
 Alpha  occ. eigenvalues --   -0.32475  -0.31048  -0.30228  -0.25370
 Alpha virt. eigenvalues --   -0.10573   0.00364   0.01368   0.07476   0.07851
 Alpha virt. eigenvalues --    0.09254   0.10171   0.10352   0.12305   0.12465
 Alpha virt. eigenvalues --    0.13902   0.14619   0.15772   0.16137   0.16338

 Mulliken charges:
               1
     1  B    0.203545
     2  N   -0.160044
     3  C    0.101390
     4  H    0.053610
     5  C   -0.024240
     6  H    0.025006
     7  C   -0.048421
     8  H    0.021039
     9  C    0.129196
    10  C   -0.020305
    11  N   -0.159838
    12  C    0.101410
    13  H    0.053668
    14  C   -0.024193
    15  H    0.025058
    16  C   -0.048489
    17  H    0.021099
    18  C    0.129090
    19  F   -0.214248
    20  F   -0.225824
    21  C    0.041402
    22  C   -0.039745
    23  H    0.010437
    24  C    0.013544
    25  H    0.016429
    26  C    0.002580
    27  C    0.013539
    28  H    0.016432
    29  C   -0.039693
    30  H    0.010425
    31  H    0.016140
 Sum of Mulliken charges =   0.00000

 Dipole moment (field-independent basis, Debye):
    X=             -2.7941    Y=             -3.7010    Z=              1.4790  Tot=              4.8675
 Quadrupole moment (field-independent basis, Debye-Ang):
   XX=            -89.6251   YY=           -123.1317   ZZ=            -91.0867
   XY=             -0.2601   XZ=             -1.2037   YZ=             -5.3856

 Normal termination of Gaussian 09 at Sun Sep 30 12:38:04 2018.
