 Gaussian 16, Revision C.01,
 Gaussian 16:  ES64L-G16RevC.01  3-Jul-2019

 ----------------------------------------------------------------------
 #p m062x cc-pvdz scrf=(cpcm,solvent=Acetone) opt=(tight,calcfc) freq n
 osymm int=ultrafine fchk
 ----------------------------------------------------------------------

 -----------------------------------
 BDP-phenyl, optimized S0 in toluene
 -----------------------------------
 Symbolic Z-matrix:
 Charge =  0 Multiplicity = 1

 SCF Done:  E(RM062X) =  -912.193752929     A.U. after   12 cycles
 SCF Done:  E(RM062X) =  -912.193819697     A.U. after   10 cycles
 SCF Done:  E(RM062X) =  -912.193819764     A.U. after    7 cycles
 SCF Done:  E(RM062X) =  -912.193819766     A.U. after    5 cycles
 SCF Done:  E(RM062X) =  -912.193819766     A.U. after    3 cycles
 Optimization completed.
    -- Stationary point found.
 Normal termination of Gaussian 16 at Tue Feb  1 12:25:01 2022.

 -------------------------------------------------------------------
 #P Geom=AllCheck Guess=TCheck SCRF=Check GenChk RM062X/CC-pVDZ Freq
 -------------------------------------------------------------------

 Structure from the checkpoint file:  "bodipy.chk"
 -----------------------------------
 BDP-phenyl, optimized S0 in toluene
 -----------------------------------
 Charge =  0 Multiplicity = 1

                          Input orientation:
 ---------------------------------------------------------------------
 Center     Atomic      Atomic             Coordinates (Angstroms)
 Number     Number       Type             X           Y           Z
 ---------------------------------------------------------------------
      1          5           0       -0.008235   -0.087173    0.007672
      2          7           0        0.003520   -0.038129    1.559368
      3          6           0        1.093570    0.020031    2.333019
      4          1           0        2.087215    0.030092    1.890300
      5          6           0        0.723177    0.072030    3.691740
      6          1           0        1.405870    0.131377    4.533355
      7          6           0       -0.665373    0.050076    3.726393
      8          1           0       -1.306489    0.102401    4.601736
      9          6           0       -1.114520   -0.026491    2.383145
     10          6           0       -2.412223   -0.010954    1.845005
     11          7           0       -1.498842    0.047001   -0.408296
     12          6           0       -1.957955    0.065811   -1.664916
     13          1           0       -1.268667    0.077565   -2.506490
     14          6           0       -3.367011    0.052793   -1.668250
     15          1           0       -3.999599    0.063046   -2.550097
     16          6           0       -3.767372    0.015709   -0.338499
     17          1           0       -4.782887   -0.021010    0.045163
     18          6           0       -2.589498    0.021770    0.451682
     19          9           0        0.743948    0.964263   -0.514388
     20          9           0        0.502427   -1.306706   -0.442903
     21          6           0       -3.584813   -0.015543    2.745557
     22          6           0       -3.700423   -0.990467    3.747870
     23          1           0       -2.931189   -1.757818    3.844423
     24          6           0       -4.807602   -0.996822    4.592822
     25          1           0       -4.896135   -1.766343    5.359985
     26          6           0       -5.799387   -0.024704    4.456217
     27          6           0       -5.685509    0.952490    3.466556
     28          1           0       -6.453365    1.719334    3.362281
     29          6           0       -4.588119    0.955561    2.608966
     30          1           0       -4.489542    1.729004    1.846225
     31          1           0       -6.662377   -0.028196    5.122778
 ---------------------------------------------------------------------

 SCF Done:  E(RM062X) =  -912.193819765     A.U. after    1 cycles

 Alpha  occ. eigenvalues --  -25.21401 -25.21202 -14.80321 -14.80307 -10.62284
 Alpha  occ. eigenvalues --  -10.60553 -10.60552 -10.59882 -10.59870 -10.58529
 Alpha  occ. eigenvalues --  -10.57222 -10.57219 -10.57184 -10.57173 -10.56781
 Alpha  occ. eigenvalues --  -10.56640 -10.56623 -10.55801 -10.55792  -7.13674
 Alpha  occ. eigenvalues --   -1.31828  -1.28493  -1.11696  -1.09700  -0.98682
 Alpha  occ. eigenvalues --   -0.93352  -0.89902  -0.88436  -0.85711  -0.85145
 Alpha  occ. eigenvalues --   -0.82977  -0.76558  -0.70460  -0.70111  -0.70033
 Alpha  occ. eigenvalues --   -0.66769  -0.66617  -0.66209  -0.62511  -0.60795
 Alpha  occ. eigenvalues --   -0.60022  -0.57684  -0.56986  -0.54353  -0.53731
 Alpha  occ. eigenvalues --   -0.53201  -0.52268  -0.51581  -0.50754  -0.50455
 Alpha  occ. eigenvalues --   -0.49694  -0.49662  -0.48146  -0.46997  -0.46815
 Alpha  occ. eigenvalues --   -0.46641  -0.45526  -0.45376  -0.44983  -0.44635
 Alpha  occ. eigenvalues --   -0.42123  -0.41590  -0.41359  -0.37148  -0.32972
 Alpha  occ. eigenvalues --   -0.32397  -0.31934  -0.31302  -0.26860
 Alpha virt. eigenvalues --   -0.08879   0.01143   0.01285   0.06052   0.07637
 Alpha virt. eigenvalues --    0.09527   0.10570   0.12448   0.12671   0.13995
 Alpha virt. eigenvalues --    0.14237   0.14607   0.15552   0.15899   0.16931

 Mulliken charges:
               1
     1  B    0.177154
     2  N   -0.177330
     3  C    0.097161
     4  H    0.059724
     5  C   -0.032581
     6  H    0.024856
     7  C   -0.024893
     8  H    0.026710
     9  C    0.094720
    10  C    0.112431
    11  N   -0.178469
    12  C    0.097529
    13  H    0.059838
    14  C   -0.031959
    15  H    0.024868
    16  C   -0.027030
    17  H    0.027319
    18  C    0.097574
    19  F   -0.238231
    20  F   -0.236121
    21  C   -0.101322
    22  C    0.005176
    23  H    0.020918
    24  C    0.005164
    25  H    0.028441
    26  C    0.001309
    27  C    0.005055
    28  H    0.028429
    29  C    0.004351
    30  H    0.021515
    31  H    0.027694
 Sum of Mulliken charges =  -0.00000

 Dipole moment (field-independent basis, Debye):
    X=             -5.6623    Y=              0.4835    Z=              4.3477  Tot=              7.1553
 Quadrupole moment (field-independent basis, Debye-Ang):
   XX=            -80.1729   YY=           -117.3242   ZZ=            -85.3668
   XY=             -2.6439   XZ=             -9.8881   YZ=             -3.4280

  Exact polarizability:     357.069     -16.468     132.575      44.855     -23.246     382.243
 Approx polarizability:     316.564     -16.143     146.749      29.981     -22.751     333.405

                      1                      2                      3
                      A                      A                      A
 Frequencies --     17.5476                68.9125                74.2784
 Red. masses --      9.2416                 3.9736                 4.9429
 Frc consts  --      0.0017                 0.0111                 0.0161
 IR Inten    --      4.2040                 0.8598                 0.8936

                      4                      5                      6
                      A                      A                      A
 Frequencies --     93.3232               119.6252               133.5476
 Red. masses --      4.5124                 5.7950                 7.4804
 Frc consts  --      0.0232                 0.0489                 0.0786
 IR Inten    --      1.0843                 1.0882                 0.0531

                      7                      8                      9
                      A                      A                      A
 Frequencies --    178.8273               223.4728               243.8856
 Red. masses --      4.5298                 6.4703                 6.5336
 Frc consts  --      0.0853                 0.1904                 0.2290
 IR Inten    --      0.5379                 1.1587                 7.4883

                     10                     11                     12
                      A                      A                      A
 Frequencies --    254.2076               269.9366               293.8098
 Red. masses --      4.6884                 6.6867                 5.0190
 Frc consts  --      0.1785                 0.2871                 0.2553
 IR Inten    --      2.5882                 5.4022                 0.8622

                     13                     14                     15
                      A                      A                      A
 Frequencies --    328.7610               392.9689               417.2417
 Red. masses --      8.4961                 7.2426                 2.9976
 Frc consts  --      0.5410                 0.6590                 0.3075
 IR Inten    --      1.4959                11.1100                 3.6590

                     16                     17                     18
                      A                      A                      A
 Frequencies --    421.1868               441.0200               448.7907
 Red. masses --      6.3986                 7.2809                 8.6357
 Frc consts  --      0.6688                 0.8344                 1.0248
 IR Inten    --     86.9818                 0.7087                 4.2032

                     19                     20                     21
                      A                      A                      A
 Frequencies --    501.8426               596.9510               603.8734
 Red. masses --      4.0118                 3.3031                 7.6007
 Frc consts  --      0.5953                 0.6935                 1.6330
 IR Inten    --     21.8821                 8.8502                 6.8609

                     22                     23                     24
                      A                      A                      A
 Frequencies --    610.4558               622.3375               651.4824
 Red. masses --      3.0925                 5.7132                 4.9760
 Frc consts  --      0.6790                 1.3037                 1.2443
 IR Inten    --      0.7239                 4.1517                41.5836

                     25                     26                     27
                      A                      A                      A
 Frequencies --    673.7580               686.5663               716.7432
 Red. masses --      6.5819                 4.7820                 2.3780
 Frc consts  --      1.7604                 1.3281                 0.7198
 IR Inten    --     28.9945                 0.0158                12.0766

                     28                     29                     30
                      A                      A                      A
 Frequencies --    736.7424               766.2683               788.7609
 Red. masses --      2.3368                 3.2197                 1.2681
 Frc consts  --      0.7473                 1.1138                 0.4648
 IR Inten    --    184.1380                63.7829                 0.2444

                     31                     32                     33
                      A                      A                      A
 Frequencies --    792.1109               804.6713               871.1810
 Red. masses --      1.7557                 2.1468                 6.7381
 Frc consts  --      0.6491                 0.8190                 3.0130
 IR Inten    --     38.1379                62.1341                 0.1825

                     34                     35                     36
                      A                      A                      A
 Frequencies --    878.9693               888.3666               902.3044
 Red. masses --      1.2575                 5.2547                 1.3961
 Frc consts  --      0.5724                 2.4433                 0.6697
 IR Inten    --     11.3260                 9.9463                 0.3183

                     37                     38                     39
                      A                      A                      A
 Frequencies --    903.9076               930.2178               943.9108
 Red. masses --      1.4321                 4.5780                 1.4029
 Frc consts  --      0.6894                 2.3340                 0.7364
 IR Inten    --      4.2250                78.2120                 3.2195

                     40                     41                     42
                      A                      A                      A
 Frequencies --    945.0378               958.3439               975.3587
 Red. masses --      1.3999                 1.6093                 1.8435
 Frc consts  --      0.7366                 0.8708                 1.0333
 IR Inten    --      2.6363                 0.5550                28.5113

                     43                     44                     45
                      A                      A                      A
 Frequencies --   1007.5660              1012.7701              1018.6364
 Red. masses --      4.0070                 1.3952                 3.9878
 Frc consts  --      2.3967                 0.8431                 2.4379
 IR Inten    --     31.3941                18.2552                75.4272

                     46                     47                     48
                      A                      A                      A
 Frequencies --   1033.2927              1036.0942              1048.0355
 Red. masses --      1.3692                 1.3224                 1.5496
 Frc consts  --      0.8613                 0.8364                 1.0028
 IR Inten    --     28.2285                 7.2935               217.6210

                     49                     50                     51
                      A                      A                      A
 Frequencies --   1061.3081              1087.5083              1094.9724
 Red. masses --      1.8305                 1.9778                 1.6094
 Frc consts  --      1.2148                 1.3781                 1.1369
 IR Inten    --      0.5821              1267.1646               114.9527

                     52                     53                     54
                      A                      A                      A
 Frequencies --   1107.5618              1143.9952              1160.8777
 Red. masses --      1.4554                 2.8254                 1.0908
 Frc consts  --      1.0519                 2.1786                 0.8661
 IR Inten    --     27.1512               916.3467                 0.3420

                     55                     56                     57
                      A                      A                      A
 Frequencies --   1162.9553              1184.1602              1193.6093
 Red. masses --     10.7754                 1.1676                 4.4654
 Frc consts  --      8.5864                 0.9646                 3.7483
 IR Inten    --    353.6367                 1.7217               165.7916

                     58                     59                     60
                      A                      A                      A
 Frequencies --   1233.6882              1247.3311              1299.5000
 Red. masses --      1.3880                 2.0504                 4.7552
 Frc consts  --      1.2447                 1.8795                 4.7312
 IR Inten    --     50.8379               247.2464               116.9257

                     61                     62                     63
                      A                      A                      A
 Frequencies --   1306.4195              1318.1662              1348.1257
 Red. masses --      4.4146                 1.5986                 3.9460
 Frc consts  --      4.4393                 1.6366                 4.2254
 IR Inten    --   1288.7296                 0.4178                 4.7067

                     64                     65                     66
                      A                      A                      A
 Frequencies --   1403.1672              1419.9634              1430.2792
 Red. masses --      4.9265                 5.6917                 3.4255
 Frc consts  --      5.7149                 6.7615                 4.1287
 IR Inten    --     11.4632                 0.5906               622.8232

                     67                     68                     69
                      A                      A                      A
 Frequencies --   1454.8664              1478.7126              1480.1735
 Red. masses --      4.4158                 2.5498                 6.3251
 Frc consts  --      5.5068                 3.2850                 8.1648
 IR Inten    --    348.2478                21.8857               142.6569

                     70                     71                     72
                      A                      A                      A
 Frequencies --   1533.0047              1547.7823              1549.8041
 Red. masses --      2.9670                 6.2108                 5.0053
 Frc consts  --      4.1082                 8.7663                 7.0833
 IR Inten    --      3.5251               125.4029                68.4978

                     73                     74                     75
                      A                      A                      A
 Frequencies --   1615.1725              1616.4174              1658.6605
 Red. masses --      6.5566                 7.9329                 6.6139
 Frc consts  --     10.0778                12.2120                10.7206
 IR Inten    --     27.2949              1608.5503                88.3711

                     76                     77                     78
                      A                      A                      A
 Frequencies --   1682.4419              3212.2590              3217.5526
 Red. masses --      6.5611                 1.0862                 1.0892
 Frc consts  --     10.9423                 6.6037                 6.6435
 IR Inten    --     17.0315                 0.4628                 0.4917

                     79                     80                     81
                      A                      A                      A
 Frequencies --   3223.3789              3231.0571              3238.2969
 Red. masses --      1.0930                 1.0970                 1.1006
 Frc consts  --      6.6910                 6.7474                 6.8002
 IR Inten    --      4.0339                10.6713                12.0861

                     82                     83                     84
                      A                      A                      A
 Frequencies --   3267.1895              3269.0615              3280.5785
 Red. masses --      1.0949                 1.0944                 1.0952
 Frc consts  --      6.8863                 6.8911                 6.9447
 IR Inten    --      2.7786                 2.4451                 0.1692

                     85                     86                     87
                      A                      A                      A
 Frequencies --   3282.0110              3297.5743              3297.6961
 Red. masses --      1.0953                 1.1071                 1.1068
 Frc consts  --      6.9515                 7.0930                 7.0918
 IR Inten    --      0.1753                 0.4126                 0.5810

 - Thermochemistry -
 -------------------
 Temperature   298.150 Kelvin.  Pressure   1.00000 Atm.
 Atom     1 has atomic number  5 and mass  11.00931

 Molecular mass:   268.09834 amu.
 Principal axes and moments of inertia in atomic units:
                           1         2         3
     Eigenvalues --  3110.834856390.872308748.47360
           X            0.79234   0.60852   0.04358
           Y           -0.00624  -0.06335   0.99797
           Z           -0.61005   0.79100   0.04640
 This molecule is an asymmetric top.
 Rotational symmetry number  1.
 Warning -- assumption of classical behavior for rotation
           may cause significant error
 Rotational temperatures (Kelvin)      0.02784     0.01355     0.00990
 Rotational constants (GHZ):           0.58015     0.28239     0.20629
 Zero-point vibrational energy     615868.5 (Joules/Mol)
                                  147.19612 (Kcal/Mol)
 Warning -- explicit consideration of  22 degrees of freedom as
           vibrations may cause significant error
 Vibrational temperatures:     25.25    99.15   106.87   134.27   172.11
          (Kelvin)            192.15   257.29   321.53   350.90   365.75
                              388.38   422.73   473.01   565.39   600.32
                              605.99   634.53   645.71   722.04   858.88
                              868.84   878.31   895.40   937.34   969.39
                              987.82  1031.23  1060.01  1102.49  1134.85
                             1139.67  1157.74  1253.44  1264.64  1278.16
                             1298.21  1300.52  1338.38  1358.08  1359.70
                             1378.84  1403.32  1449.66  1457.15  1465.59
                             1486.68  1490.71  1507.89  1526.99  1564.68
                             1575.42  1593.53  1645.95  1670.24  1673.23
                             1703.74  1717.34  1775.00  1794.63  1869.69
                             1879.65  1896.55  1939.65  2018.84  2043.01
                             2057.85  2093.23  2127.54  2129.64  2205.65
                             2226.91  2229.82  2323.87  2325.66  2386.44
                             2420.66  4621.72  4629.34  4637.72  4648.77
                             4659.19  4700.76  4703.45  4720.02  4722.08
                             4744.47  4744.65

 Zero-point correction=                           0.234572 (Hartree/Particle)
 Thermal correction to Energy=                    0.249599
 Thermal correction to Enthalpy=                  0.250543
 Thermal correction to Gibbs Free Energy=         0.191239
 Sum of electronic and zero-point Energies=           -911.959248
 Sum of electronic and thermal Energies=              -911.944220
 Sum of electronic and thermal Enthalpies=            -911.943276
 Sum of electronic and thermal Free Energies=         -912.002581

                     E (Thermal)             CV                S
                      KCal/Mol        Cal/Mol-Kelvin    Cal/Mol-Kelvin
 Total                  156.626             60.201            124.816
 Electronic               0.000              0.000              0.000
 Translational            0.889              2.981             42.658
 Rotational               0.889              2.981             33.519
 Vibrational            154.848             54.239             48.640
 Vibration     1          0.593              1.986              6.894
 Vibration     2          0.598              1.969              4.184
 Vibration     3          0.599              1.966              4.037
 Vibration     4          0.602              1.954              3.589
 Vibration     5          0.609              1.933              3.106
 Vibration     6          0.613              1.920              2.894
 Vibration     7          0.629              1.868              2.341
 Vibration     8          0.649              1.805              1.931
 Vibration     9          0.659              1.773              1.774
 Vibration    10          0.665              1.756              1.701
 Vibration    11          0.674              1.729              1.597
 Vibration    12          0.689              1.685              1.452
 Vibration    13          0.712              1.618              1.266
 Vibration    14          0.760              1.485              0.989
 Vibration    15          0.780              1.433              0.901
 Vibration    16          0.784              1.424              0.888
 Vibration    17          0.801              1.381              0.823
 Vibration    18          0.808              1.364              0.799
 Vibration    19          0.857              1.246              0.654
 Vibration    20          0.955              1.038              0.455
 Vibration    21          0.962              1.024              0.443
 Vibration    22          0.970              1.010              0.432

 Optimization completed on the basis of negligible forces.
    -- Stationary point found.
 Normal termination of Gaussian 16 at Tue Feb  1 12:35:15 2022.
