 Gaussian 16, Revision C.01,
 Gaussian 16:  ES64L-G16RevC.01  3-Jul-2019

 ----------------------------------------------------------------------
 #p m062x cc-pvdz scrf=(cpcm,solvent=TetraHydroFuran) opt=(tight,calcfc
 ) freq nosymm int=ultrafine fchk
 ----------------------------------------------------------------------

 -----------------------------------
 BDP-phenyl, optimized S0 in toluene
 -----------------------------------
 Symbolic Z-matrix:
 Charge =  0 Multiplicity = 1

 SCF Done:  E(RM062X) =  -912.192550660     A.U. after   13 cycles
 SCF Done:  E(RM062X) =  -912.192588668     A.U. after   10 cycles
 SCF Done:  E(RM062X) =  -912.192588687     A.U. after    7 cycles
 SCF Done:  E(RM062X) =  -912.192588687     A.U. after    4 cycles
 SCF Done:  E(RM062X) =  -912.192588687     A.U. after    3 cycles
 Optimization completed.
    -- Stationary point found.
 Normal termination of Gaussian 16 at Tue Feb  1 12:23:46 2022.

 -------------------------------------------------------------------
 #P Geom=AllCheck Guess=TCheck SCRF=Check GenChk RM062X/CC-pVDZ Freq
 -------------------------------------------------------------------

 Structure from the checkpoint file:  "bodipy.chk"
 -----------------------------------
 BDP-phenyl, optimized S0 in toluene
 -----------------------------------
 Charge =  0 Multiplicity = 1

                          Input orientation:
 ---------------------------------------------------------------------
 Center     Atomic      Atomic             Coordinates (Angstroms)
 Number     Number       Type             X           Y           Z
 ---------------------------------------------------------------------
      1          5           0       -0.007236   -0.090606    0.006973
      2          7           0        0.003547   -0.037280    1.559657
      3          6           0        1.093084    0.022929    2.333001
      4          1           0        2.086396    0.033643    1.889624
      5          6           0        0.722540    0.075905    3.691980
      6          1           0        1.405112    0.137153    4.533545
      7          6           0       -0.665755    0.052303    3.726521
      8          1           0       -1.307387    0.105151    4.601449
      9          6           0       -1.114474   -0.026080    2.383049
     10          6           0       -2.411824   -0.011425    1.844556
     11          7           0       -1.498971    0.046258   -0.408435
     12          6           0       -1.957814    0.066014   -1.664597
     13          1           0       -1.267886    0.077854   -2.505607
     14          6           0       -3.367203    0.053620   -1.668104
     15          1           0       -3.999713    0.064595   -2.549988
     16          6           0       -3.767542    0.015913   -0.338608
     17          1           0       -4.782906   -0.020770    0.045439
     18          6           0       -2.589382    0.021013    0.451474
     19          9           0        0.745757    0.958040   -0.516559
     20          9           0        0.498310   -1.312649   -0.438855
     21          6           0       -3.584556   -0.016097    2.745279
     22          6           0       -3.701587   -0.992818    3.745488
     23          1           0       -2.933102   -1.761181    3.840098
     24          6           0       -4.808637   -0.999339    4.590597
     25          1           0       -4.898235   -1.770360    5.356158
     26          6           0       -5.799017   -0.025608    4.456172
     27          6           0       -5.683735    0.953408    3.468590
     28          1           0       -6.450487    1.721624    3.366059
     29          6           0       -4.586366    0.956676    2.610986
     30          1           0       -4.486371    1.731363    1.849672
     31          1           0       -6.661964   -0.029252    5.122804
 ---------------------------------------------------------------------

 SCF Done:  E(RM062X) =  -912.192588687     A.U. after    1 cycles

 Alpha  occ. eigenvalues --  -25.21174 -25.20962 -14.80239 -14.80225 -10.62238
 Alpha  occ. eigenvalues --  -10.60496 -10.60495 -10.59830 -10.59818 -10.58573
 Alpha  occ. eigenvalues --  -10.57287 -10.57282 -10.57156 -10.57144 -10.56870
 Alpha  occ. eigenvalues --  -10.56732 -10.56714 -10.55780 -10.55769  -7.13503
 Alpha  occ. eigenvalues --   -1.31613  -1.28282  -1.11629  -1.09640  -0.98728
 Alpha  occ. eigenvalues --   -0.93356  -0.89846  -0.88391  -0.85783  -0.85181
 Alpha  occ. eigenvalues --   -0.82931  -0.76538  -0.70527  -0.70059  -0.70005
 Alpha  occ. eigenvalues --   -0.66763  -0.66567  -0.66179  -0.62463  -0.60838
 Alpha  occ. eigenvalues --   -0.59855  -0.57502  -0.57000  -0.54296  -0.53770
 Alpha  occ. eigenvalues --   -0.53095  -0.52266  -0.51512  -0.50647  -0.50422
 Alpha  occ. eigenvalues --   -0.49746  -0.49679  -0.48081  -0.46963  -0.46784
 Alpha  occ. eigenvalues --   -0.46471  -0.45475  -0.45190  -0.44880  -0.44651
 Alpha  occ. eigenvalues --   -0.41991  -0.41652  -0.41427  -0.37116  -0.32912
 Alpha  occ. eigenvalues --   -0.32417  -0.31931  -0.31348  -0.26795
 Alpha virt. eigenvalues --   -0.08827   0.01090   0.01212   0.06129   0.07696
 Alpha virt. eigenvalues --    0.09481   0.10510   0.12429   0.12613   0.13936
 Alpha virt. eigenvalues --    0.14225   0.14579   0.15487   0.15866   0.16857

 Mulliken charges:
               1
     1  B    0.178799
     2  N   -0.177203
     3  C    0.098776
     4  H    0.058983
     5  C   -0.032303
     6  H    0.023144
     7  C   -0.025142
     8  H    0.024926
     9  C    0.096068
    10  C    0.110662
    11  N   -0.178398
    12  C    0.099193
    13  H    0.059100
    14  C   -0.031665
    15  H    0.023153
    16  C   -0.027336
    17  H    0.025539
    18  C    0.099104
    19  F   -0.235788
    20  F   -0.233261
    21  C   -0.100738
    22  C    0.005643
    23  H    0.020136
    24  C    0.005756
    25  H    0.027062
    26  C    0.001616
    27  C    0.005621
    28  H    0.027018
    29  C    0.004713
    30  H    0.020612
    31  H    0.026208
 Sum of Mulliken charges =  -0.00000

 Dipole moment (field-independent basis, Debye):
    X=             -5.4977    Y=              0.4880    Z=              4.2216  Tot=              6.9488
 Quadrupole moment (field-independent basis, Debye-Ang):
   XX=            -81.0613   YY=           -117.3134   ZZ=            -86.0679
   XY=             -2.5870   XZ=             -9.5547   YZ=             -3.3748

  Exact polarizability:     343.530     -15.406     128.780      40.274     -21.840     366.229
 Approx polarizability:     316.437     -16.035     146.923      30.426     -22.670     333.549

                      1                      2                      3
                      A                      A                      A
 Frequencies --     16.9636                68.9331                74.1516
 Red. masses --      9.2585                 3.9754                 4.9439
 Frc consts  --      0.0016                 0.0111                 0.0160
 IR Inten    --      3.9828                 0.7588                 0.8634

                      4                      5                      6
                      A                      A                      A
 Frequencies --     93.3556               119.5018               133.4580
 Red. masses --      4.5124                 5.7901                 7.5208
 Frc consts  --      0.0232                 0.0487                 0.0789
 IR Inten    --      1.0749                 1.0070                 0.0493

                      7                      8                      9
                      A                      A                      A
 Frequencies --    178.6604               223.3043               243.6462
 Red. masses --      4.5154                 6.4576                 6.5311
 Frc consts  --      0.0849                 0.1897                 0.2284
 IR Inten    --      0.4756                 1.1238                 6.3203

                     10                     11                     12
                      A                      A                      A
 Frequencies --    254.2844               269.7223               293.6107
 Red. masses --      4.6919                 6.6984                 5.0135
 Frc consts  --      0.1787                 0.2871                 0.2546
 IR Inten    --      2.4124                 5.1308                 0.8280

                     13                     14                     15
                      A                      A                      A
 Frequencies --    328.8693               392.7626               417.2796
 Red. masses --      8.4798                 7.2503                 2.9989
 Frc consts  --      0.5404                 0.6590                 0.3077
 IR Inten    --      1.3399                10.2959                 3.2887

                     16                     17                     18
                      A                      A                      A
 Frequencies --    421.1945               440.8061               448.8773
 Red. masses --      6.4001                 7.2821                 8.6211
 Frc consts  --      0.6690                 0.8337                 1.0235
 IR Inten    --     75.4840                 0.6373                 3.7152

                     19                     20                     21
                      A                      A                      A
 Frequencies --    502.2592               597.0534               604.0239
 Red. masses --      4.0066                 3.3108                 7.6515
 Frc consts  --      0.5955                 0.6954                 1.6448
 IR Inten    --     18.8819                 8.2817                 6.6512

                     22                     23                     24
                      A                      A                      A
 Frequencies --    610.5322               622.4739               651.7678
 Red. masses --      3.0861                 5.7105                 4.9813
 Frc consts  --      0.6778                 1.3037                 1.2468
 IR Inten    --      0.6515                 3.9488                38.2445

                     25                     26                     27
                      A                      A                      A
 Frequencies --    673.9940               686.8688               716.9292
 Red. masses --      6.5791                 4.7599                 2.3919
 Frc consts  --      1.7609                 1.3231                 0.7243
 IR Inten    --     27.1272                 0.0088                11.1802

                     28                     29                     30
                      A                      A                      A
 Frequencies --    736.9271               766.0049               788.3586
 Red. masses --      2.3270                 3.1851                 1.2694
 Frc consts  --      0.7446                 1.1011                 0.4648
 IR Inten    --    166.5875                57.2300                 0.2242

                     31                     32                     33
                      A                      A                      A
 Frequencies --    791.8653               804.5010               871.4196
 Red. masses --      1.7578                 2.1569                 6.7395
 Frc consts  --      0.6494                 0.8225                 3.0153
 IR Inten    --     36.1763                59.4177                 0.1046

                     34                     35                     36
                      A                      A                      A
 Frequencies --    879.1809               888.5861               901.9441
 Red. masses --      1.2551                 5.2917                 1.3947
 Frc consts  --      0.5716                 2.4618                 0.6685
 IR Inten    --     10.0421                 9.6118                 0.3073

                     37                     38                     39
                      A                      A                      A
 Frequencies --    903.6182               930.7318               943.0798
 Red. masses --      1.4308                 4.5384                 1.4041
 Frc consts  --      0.6883                 2.3164                 0.7358
 IR Inten    --      4.0192                69.3839                 3.0374

                     40                     41                     42
                      A                      A                      A
 Frequencies --    944.1780               957.8958               974.9511
 Red. masses --      1.4007                 1.6185                 1.8393
 Frc consts  --      0.7357                 0.8750                 1.0301
 IR Inten    --      2.4619                 0.7662                25.0549

                     43                     44                     45
                      A                      A                      A
 Frequencies --   1008.0512              1012.4479              1019.2866
 Red. masses --      3.9422                 1.3877                 3.8985
 Frc consts  --      2.3602                 0.8381                 2.3864
 IR Inten    --     23.5117                15.4175                70.0164

                     46                     47                     48
                      A                      A                      A
 Frequencies --   1033.2431              1035.5779              1049.3678
 Red. masses --      1.3602                 1.3304                 1.5703
 Frc consts  --      0.8556                 0.8406                 1.0188
 IR Inten    --     16.6980                 8.4274               207.9225

                     49                     50                     51
                      A                      A                      A
 Frequencies --   1061.6247              1089.1683              1095.5816
 Red. masses --      1.8240                 1.9230                 1.6310
 Frc consts  --      1.2112                 1.3441                 1.1534
 IR Inten    --      1.0713              1039.5338               122.9129

                     52                     53                     54
                      A                      A                      A
 Frequencies --   1107.7350              1145.3965              1161.3196
 Red. masses --      1.4590                 2.8669                 1.0908
 Frc consts  --      1.0548                 2.2160                 0.8668
 IR Inten    --     26.9425               859.0154                 0.4928

                     55                     56                     57
                      A                      A                      A
 Frequencies --   1169.4011              1184.7609              1193.9711
 Red. masses --     10.5922                 1.1709                 4.5095
 Frc consts  --      8.5342                 0.9683                 3.7876
 IR Inten    --    331.3014                 3.1955               166.0905

                     58                     59                     60
                      A                      A                      A
 Frequencies --   1233.7177              1246.9280              1299.5661
 Red. masses --      1.3862                 2.0574                 4.7477
 Frc consts  --      1.2431                 1.8847                 4.7242
 IR Inten    --     47.5647               210.1265               106.4925

                     61                     62                     63
                      A                      A                      A
 Frequencies --   1309.3257              1318.2768              1348.3445
 Red. masses --      4.4625                 1.5992                 3.9474
 Frc consts  --      4.5074                 1.6375                 4.2282
 IR Inten    --   1204.2614                 1.2273                 4.0623

                     64                     65                     66
                      A                      A                      A
 Frequencies --   1403.9261              1420.2982              1431.2595
 Red. masses --      4.9069                 5.6155                 3.4264
 Frc consts  --      5.6983                 6.6742                 4.1354
 IR Inten    --     11.7240                 0.0674               575.5862

                     67                     68                     69
                      A                      A                      A
 Frequencies --   1455.0606              1478.9504              1481.0189
 Red. masses --      4.4122                 2.5502                 6.3200
 Frc consts  --      5.5039                 3.2864                 8.1674
 IR Inten    --    315.8092                20.6153               139.2601

                     70                     71                     72
                      A                      A                      A
 Frequencies --   1533.2914              1548.8281              1550.7050
 Red. masses --      2.9717                 6.2396                 5.0108
 Frc consts  --      4.1163                 8.8189                 7.0993
 IR Inten    --      4.3505               116.8722                62.1135

                     73                     74                     75
                      A                      A                      A
 Frequencies --   1616.0577              1618.9579              1659.3088
 Red. masses --      6.5823                 8.0217                 6.6344
 Frc consts  --     10.1284                12.3876                10.7623
 IR Inten    --     19.5171              1495.6943                91.0999

                     76                     77                     78
                      A                      A                      A
 Frequencies --   1683.0668              3211.7947              3217.2409
 Red. masses --      6.5586                 1.0861                 1.0891
 Frc consts  --     10.9461                 6.6013                 6.6420
 IR Inten    --     14.8008                 0.4516                 0.5673

                     79                     80                     81
                      A                      A                      A
 Frequencies --   3223.1433              3230.7893              3238.0360
 Red. masses --      1.0930                 1.0970                 1.1006
 Frc consts  --      6.6900                 6.7463                 6.7991
 IR Inten    --      4.0197                 9.9547                11.4949

                     82                     83                     84
                      A                      A                      A
 Frequencies --   3267.5093              3269.3332              3280.4461
 Red. masses --      1.0948                 1.0943                 1.0952
 Frc consts  --      6.8869                 6.8912                 6.9443
 IR Inten    --      2.8265                 2.4816                 0.1320

                     85                     86                     87
                      A                      A                      A
 Frequencies --   3281.8816              3297.5696              3297.7697
 Red. masses --      1.0954                 1.1071                 1.1068
 Frc consts  --      6.9512                 7.0931                 7.0917
 IR Inten    --      0.1407                 0.3380                 0.4261

 - Thermochemistry -
 -------------------
 Temperature   298.150 Kelvin.  Pressure   1.00000 Atm.
 Atom     1 has atomic number  5 and mass  11.00931

 Molecular mass:   268.09834 amu.
 Principal axes and moments of inertia in atomic units:
                           1         2         3
     Eigenvalues --  3110.829556390.265018745.51151
           X            0.79231   0.60857   0.04343
           Y           -0.00646  -0.06281   0.99800
           Z           -0.61009   0.79101   0.04583
 This molecule is an asymmetric top.
 Rotational symmetry number  1.
 Warning -- assumption of classical behavior for rotation
           may cause significant error
 Rotational temperatures (Kelvin)      0.02784     0.01355     0.00990
 Rotational constants (GHZ):           0.58015     0.28242     0.20636
 Zero-point vibrational energy     616004.2 (Joules/Mol)
                                  147.22854 (Kcal/Mol)
 Warning -- explicit consideration of  22 degrees of freedom as
           vibrations may cause significant error
 Vibrational temperatures:     24.41    99.18   106.69   134.32   171.94
          (Kelvin)            192.02   257.05   321.29   350.55   365.86
                              388.07   422.44   473.17   565.10   600.37
                              606.00   634.22   645.83   722.64   859.03
                              869.06   878.42   895.60   937.75   969.73
                              988.25  1031.50  1060.27  1102.11  1134.27
                             1139.32  1157.50  1253.78  1264.95  1278.48
                             1297.70  1300.11  1339.12  1356.88  1358.46
                             1378.20  1402.74  1450.36  1456.69  1466.53
                             1486.61  1489.97  1509.81  1527.44  1567.07
                             1576.30  1593.78  1647.97  1670.88  1682.51
                             1704.61  1717.86  1775.04  1794.05  1869.79
                             1883.83  1896.71  1939.97  2019.94  2043.49
                             2059.26  2093.51  2127.88  2130.86  2206.06
                             2228.42  2231.12  2325.15  2329.32  2387.38
                             2421.56  4621.06  4628.89  4637.38  4648.39
                             4658.81  4701.22  4703.84  4719.83  4721.90
                             4744.47  4744.76

 Zero-point correction=                           0.234624 (Hartree/Particle)
 Thermal correction to Energy=                    0.249652
 Thermal correction to Enthalpy=                  0.250597
 Thermal correction to Gibbs Free Energy=         0.191257
 Sum of electronic and zero-point Energies=           -911.957965
 Sum of electronic and thermal Energies=              -911.942936
 Sum of electronic and thermal Enthalpies=            -911.941992
 Sum of electronic and thermal Free Energies=         -912.001332

                     E (Thermal)             CV                S
                      KCal/Mol        Cal/Mol-Kelvin    Cal/Mol-Kelvin
 Total                  156.659             60.189            124.891
 Electronic               0.000              0.000              0.000
 Translational            0.889              2.981             42.658
 Rotational               0.889              2.981             33.519
 Vibrational            154.882             54.227             48.714
 Vibration     1          0.593              1.986              6.961
 Vibration     2          0.598              1.969              4.184
 Vibration     3          0.599              1.966              4.040
 Vibration     4          0.602              1.954              3.588
 Vibration     5          0.609              1.933              3.108
 Vibration     6          0.613              1.920              2.896
 Vibration     7          0.629              1.869              2.342
 Vibration     8          0.649              1.806              1.932
 Vibration     9          0.659              1.773              1.776
 Vibration    10          0.665              1.756              1.701
 Vibration    11          0.674              1.729              1.598
 Vibration    12          0.688              1.686              1.453
 Vibration    13          0.712              1.618              1.266
 Vibration    14          0.760              1.486              0.990
 Vibration    15          0.780              1.433              0.901
 Vibration    16          0.784              1.424              0.888
 Vibration    17          0.801              1.381              0.824
 Vibration    18          0.808              1.363              0.799
 Vibration    19          0.858              1.245              0.652
 Vibration    20          0.955              1.038              0.455
 Vibration    21          0.962              1.023              0.443
 Vibration    22          0.970              1.010              0.432

 Optimization completed on the basis of negligible forces.
    -- Stationary point found.
 Normal termination of Gaussian 16 at Tue Feb  1 12:33:42 2022.
