 Gaussian 16, Revision C.01,
 Gaussian 16:  ES64L-G16RevC.01  3-Jul-2019

 ----------------------------------------------------------------------
 #p m062x cc-pvdz scrf=(cpcm,solvent=DiMethylSulfoxide) opt=(tight,calc
 fc) freq nosymm int=ultrafine fchk
 ----------------------------------------------------------------------

 -----------------------------------
 BDP-phenyl, optimized S0 in toluene
 -----------------------------------
 Symbolic Z-matrix:
 Charge =  0 Multiplicity = 1

 SCF Done:  E(RM062X) =  -912.194143484     A.U. after   12 cycles
 SCF Done:  E(RM062X) =  -912.194221456     A.U. after   10 cycles
 SCF Done:  E(RM062X) =  -912.194221549     A.U. after    8 cycles
 SCF Done:  E(RM062X) =  -912.194221551     A.U. after    5 cycles
 SCF Done:  E(RM062X) =  -912.194221551     A.U. after    3 cycles
 Optimization completed.
    -- Stationary point found.
 Normal termination of Gaussian 16 at Tue Feb  1 06:47:31 2022.

 -------------------------------------------------------------------
 #P Geom=AllCheck Guess=TCheck SCRF=Check GenChk RM062X/CC-pVDZ Freq
 -------------------------------------------------------------------

 Structure from the checkpoint file:  "bodipy.chk"
 -----------------------------------
 BDP-phenyl, optimized S0 in toluene
 -----------------------------------
 Charge =  0 Multiplicity = 1

                          Input orientation:
 ---------------------------------------------------------------------
 Center     Atomic      Atomic             Coordinates (Angstroms)
 Number     Number       Type             X           Y           Z
 ---------------------------------------------------------------------
      1          5           0       -0.008574   -0.086178    0.007909
      2          7           0        0.003509   -0.038416    1.559272
      3          6           0        1.093726    0.019120    2.333025
      4          1           0        2.087479    0.028976    1.890520
      5          6           0        0.723380    0.070829    3.691657
      6          1           0        1.406108    0.129597    4.533290
      7          6           0       -0.665253    0.049383    3.726347
      8          1           0       -1.306199    0.101556    4.601825
      9          6           0       -1.114538   -0.026638    2.383176
     10          6           0       -2.412358   -0.010815    1.845151
     11          7           0       -1.498793    0.047269   -0.408249
     12          6           0       -1.957991    0.065833   -1.665022
     13          1           0       -1.268906    0.077580   -2.506776
     14          6           0       -3.366934    0.052636   -1.668306
     15          1           0       -3.999548    0.062707   -2.550141
     16          6           0       -3.767311    0.015700   -0.338475
     17          1           0       -4.782880   -0.021028    0.045050
     18          6           0       -2.589536    0.022024    0.451746
     19          9           0        0.743479    0.966031   -0.513758
     20          9           0        0.503604   -1.304988   -0.444122
     21          6           0       -3.584898   -0.015383    2.745645
     22          6           0       -3.700014   -0.989694    3.748674
     23          1           0       -2.930516   -1.756690    3.845880
     24          6           0       -4.807231   -0.996003    4.593578
     25          1           0       -4.895393   -1.765013    5.361284
     26          6           0       -5.799502   -0.024444    4.456237
     27          6           0       -5.686112    0.952130    3.465872
     28          1           0       -6.454350    1.718500    3.361011
     29          6           0       -4.588721    0.955143    2.608282
     30          1           0       -4.490630    1.728164    1.845057
     31          1           0       -6.662503   -0.027892    5.122778
 ---------------------------------------------------------------------

 SCF Done:  E(RM062X) =  -912.194221551     A.U. after    1 cycles

 Alpha  occ. eigenvalues --  -25.21476 -25.21281 -14.80348 -14.80334 -10.62299
 Alpha  occ. eigenvalues --  -10.60572 -10.60571 -10.59899 -10.59887 -10.58514
 Alpha  occ. eigenvalues --  -10.57201 -10.57198 -10.57193 -10.57182 -10.56751
 Alpha  occ. eigenvalues --  -10.56610 -10.56592 -10.55809 -10.55799  -7.13730
 Alpha  occ. eigenvalues --   -1.31899  -1.28563  -1.11718  -1.09720  -0.98668
 Alpha  occ. eigenvalues --   -0.93351  -0.89920  -0.88451  -0.85687  -0.85133
 Alpha  occ. eigenvalues --   -0.82992  -0.76565  -0.70439  -0.70141  -0.70030
 Alpha  occ. eigenvalues --   -0.66771  -0.66633  -0.66218  -0.62527  -0.60781
 Alpha  occ. eigenvalues --   -0.60076  -0.57745  -0.56980  -0.54373  -0.53718
 Alpha  occ. eigenvalues --   -0.53237  -0.52269  -0.51604  -0.50791  -0.50466
 Alpha  occ. eigenvalues --   -0.49685  -0.49646  -0.48169  -0.47008  -0.46831
 Alpha  occ. eigenvalues --   -0.46691  -0.45565  -0.45416  -0.45016  -0.44628
 Alpha  occ. eigenvalues --   -0.42168  -0.41568  -0.41334  -0.37158  -0.32992
 Alpha  occ. eigenvalues --   -0.32394  -0.31931  -0.31286  -0.26882
 Alpha virt. eigenvalues --   -0.08896   0.01161   0.01309   0.06026   0.07617
 Alpha virt. eigenvalues --    0.09539   0.10592   0.12452   0.12689   0.14008
 Alpha virt. eigenvalues --    0.14246   0.14614   0.15576   0.15910   0.16956

 Mulliken charges:
               1
     1  B    0.176603
     2  N   -0.177370
     3  C    0.096616
     4  H    0.059949
     5  C   -0.032657
     6  H    0.025415
     7  C   -0.024796
     8  H    0.027302
     9  C    0.094264
    10  C    0.113010
    11  N   -0.178493
    12  C    0.096969
    13  H    0.060062
    14  C   -0.032040
    15  H    0.025428
    16  C   -0.026919
    17  H    0.027910
    18  C    0.097064
    19  F   -0.239035
    20  F   -0.237054
    21  C   -0.101504
    22  C    0.005022
    23  H    0.021170
    24  C    0.004983
    25  H    0.028889
    26  C    0.001224
    27  C    0.004883
    28  H    0.028888
    29  C    0.004231
    30  H    0.021807
    31  H    0.028178
 Sum of Mulliken charges =  -0.00000

 Dipole moment (field-independent basis, Debye):
    X=             -5.7174    Y=              0.4826    Z=              4.3899  Tot=              7.2244
 Quadrupole moment (field-independent basis, Debye-Ang):
   XX=            -79.8763   YY=           -117.3283   ZZ=            -85.1335
   XY=             -2.6627   XZ=            -10.0009   YZ=             -3.4457

  Exact polarizability:     361.647     -16.835     133.837      46.440     -23.733     387.679
 Approx polarizability:     316.609     -16.178     146.690      29.829     -22.780     333.359

                      1                      2                      3
                      A                      A                      A
 Frequencies --     17.7499                68.9053                74.3220
 Red. masses --      9.2360                 3.9731                 4.9425
 Frc consts  --      0.0017                 0.0111                 0.0161
 IR Inten    --      4.2787                 0.8957                 0.9040

                      4                      5                      6
                      A                      A                      A
 Frequencies --     93.3140               119.6646               133.5742
 Red. masses --      4.5124                 5.7967                 7.4671
 Frc consts  --      0.0232                 0.0489                 0.0785
 IR Inten    --      1.0872                 1.1165                 0.0545

                      7                      8                      9
                      A                      A                      A
 Frequencies --    178.8837               223.5305               243.9604
 Red. masses --      4.5346                 6.4743                 6.5354
 Frc consts  --      0.0855                 0.1906                 0.2292
 IR Inten    --      0.5601                 1.1696                 7.9243

                     10                     11                     12
                      A                      A                      A
 Frequencies --    254.1801               270.0098               293.8761
 Red. masses --      4.6869                 6.6829                 5.0207
 Frc consts  --      0.1784                 0.2871                 0.2555
 IR Inten    --      2.6485                 5.4932                 0.8741

                     13                     14                     15
                      A                      A                      A
 Frequencies --    328.7297               393.0353               417.2279
 Red. masses --      8.5014                 7.2401                 2.9972
 Frc consts  --      0.5413                 0.6590                 0.3074
 IR Inten    --      1.5516                11.3918                 3.7894

                     16                     17                     18
                      A                      A                      A
 Frequencies --    421.1754               441.0893               448.7682
 Red. masses --      6.3982                 7.2806                 8.6396
 Frc consts  --      0.6687                 0.8346                 1.0252
 IR Inten    --     91.1808                 0.7350                 4.3779

                     19                     20                     21
                      A                      A                      A
 Frequencies --    501.7001               596.9174               603.8231
 Red. masses --      4.0136                 3.3006                 7.5825
 Frc consts  --      0.5952                 0.6929                 1.6289
 IR Inten    --     22.9711                 9.0445                 6.9295

                     22                     23                     24
                      A                      A                      A
 Frequencies --    610.4310               622.2933               651.3881
 Red. masses --      3.0948                 5.7144                 4.9742
 Frc consts  --      0.6794                 1.3038                 1.2435
 IR Inten    --      0.7525                 4.2203                42.7568

                     25                     26                     27
                      A                      A                      A
 Frequencies --    673.6797               686.4675               716.6778
 Red. masses --      6.5828                 4.7894                 2.3735
 Frc consts  --      1.7602                 1.3297                 0.7183
 IR Inten    --     29.6407                 0.0188                12.3925

                     28                     29                     30
                      A                      A                      A
 Frequencies --    736.6766               766.3551               788.8930
 Red. masses --      2.3401                 3.2313                 1.2676
 Frc consts  --      0.7482                 1.1181                 0.4648
 IR Inten    --    190.4408                66.1395                 0.2535

                     31                     32                     33
                      A                      A                      A
 Frequencies --    792.1910               804.7270               871.1023
 Red. masses --      1.7550                 2.1436                 6.7371
 Frc consts  --      0.6489                 0.8179                 3.0121
 IR Inten    --     38.8128                63.0473                 0.2162

                     34                     35                     36
                      A                      A                      A
 Frequencies --    878.8947               888.2954               902.4182
 Red. masses --      1.2584                 5.2420                 1.3966
 Frc consts  --      0.5727                 2.4370                 0.6701
 IR Inten    --     11.7886                10.0576                 0.3223

                     37                     38                     39
                      A                      A                      A
 Frequencies --    903.9966               930.0440               944.1843
 Red. masses --      1.4325                 4.5909                 1.4025
 Frc consts  --      0.6898                 2.3397                 0.7367
 IR Inten    --      4.2989                81.3534                 3.2881

                     40                     41                     42
                      A                      A                      A
 Frequencies --    945.3219               958.4918               975.4936
 Red. masses --      1.3996                 1.6062                 1.8451
 Frc consts  --      0.7369                 0.8694                 1.0345
 IR Inten    --      2.6966                 0.4858                29.7551

                     43                     44                     45
                      A                      A                      A
 Frequencies --   1007.3947              1012.8724              1018.4221
 Red. masses --      4.0276                 1.3994                 4.0052
 Frc consts  --      2.4082                 0.8459                 2.4475
 IR Inten    --     34.4314                19.5006                76.9048

                     46                     47                     48
                      A                      A                      A
 Frequencies --   1033.2841              1036.2830              1047.6034
 Red. masses --      1.3713                 1.3208                 1.5427
 Frc consts  --      0.8626                 0.8357                 0.9975
 IR Inten    --     32.8621                 6.9819               220.5357

                     49                     50                     51
                      A                      A                      A
 Frequencies --   1061.2071              1086.9023              1094.7830
 Red. masses --      1.8324                 1.9978                 1.6026
 Frc consts  --      1.2158                 1.3905                 1.1317
 IR Inten    --      0.4720              1352.1438               111.9904

                     52                     53                     54
                      A                      A                      A
 Frequencies --   1107.5057              1143.5249              1160.6970
 Red. masses --      1.4542                 2.8112                 1.4540
 Frc consts  --      1.0509                 2.1659                 1.1541
 IR Inten    --     27.1430               933.6447                92.9559

                     55                     56                     57
                      A                      A                      A
 Frequencies --   1160.8532              1183.9689              1193.5195
 Red. masses --      3.1066                 1.1663                 4.4631
 Frc consts  --      2.4665                 0.9632                 3.7458
 IR Inten    --    268.3039                 1.4237               166.1233

                     58                     59                     60
                      A                      A                      A
 Frequencies --   1233.6780              1247.4560              1299.4780
 Red. masses --      1.3887                 2.0474                 4.7576
 Frc consts  --      1.2453                 1.8772                 4.7334
 IR Inten    --     51.9830               261.0224               120.6204

                     61                     62                     63
                      A                      A                      A
 Frequencies --   1305.4684              1318.1290              1348.0557
 Red. masses --      4.3969                 1.5988                 3.9461
 Frc consts  --      4.4150                 1.6366                 4.2250
 IR Inten    --   1315.7876                 0.2983                 4.9369

                     64                     65                     66
                      A                      A                      A
 Frequencies --   1402.9149              1419.8470              1429.9548
 Red. masses --      4.9330                 5.7168                 3.4255
 Frc consts  --      5.7203                 6.7902                 4.1269
 IR Inten    --     11.3736                 0.9290               639.0329

                     67                     68                     69
                      A                      A                      A
 Frequencies --   1454.7974              1478.6358              1479.8921
 Red. masses --      4.4171                 2.5500                 6.3252
 Frc consts  --      5.5080                 3.2848                 8.1617
 IR Inten    --    359.6895                22.3428               143.5728

                     70                     71                     72
                      A                      A                      A
 Frequencies --   1532.9089              1547.4348              1549.5039
 Red. masses --      2.9654                 6.2016                 5.0038
 Frc consts  --      4.1055                 8.7494                 7.0784
 IR Inten    --      3.2400               128.3080                70.7898

                     73                     74                     75
                      A                      A                      A
 Frequencies --   1614.8731              1615.5675              1658.4479
 Red. masses --      6.5561                 7.8895                 6.6074
 Frc consts  --     10.0733                12.1325                10.7075
 IR Inten    --     44.4905              1632.1825                87.4855

                     76                     77                     78
                      A                      A                      A
 Frequencies --   1682.2344              3212.4139              3217.6572
 Red. masses --      6.5619                 1.0862                 1.0892
 Frc consts  --     10.9409                 6.6045                 6.6440
 IR Inten    --     17.8303                 0.4665                 0.4667

                     79                     80                     81
                      A                      A                      A
 Frequencies --   3223.4590              3231.1496              3238.3865
 Red. masses --      1.0930                 1.0970                 1.1006
 Frc consts  --      6.6913                 6.7478                 6.8006
 IR Inten    --      4.0373                10.9191                12.2891

                     82                     83                     84
                      A                      A                      A
 Frequencies --   3267.0800              3268.9660              3280.6245
 Red. masses --      1.0950                 1.0945                 1.0952
 Frc consts  --      6.8861                 6.8910                 6.9449
 IR Inten    --      2.7624                 2.4326                 0.1840

                     85                     86                     87
                      A                      A                      A
 Frequencies --   3282.0556              3297.5732              3297.6776
 Red. masses --      1.0953                 1.1071                 1.1069
 Frc consts  --      6.9517                 7.0928                 7.0920
 IR Inten    --      0.1896                 0.4326                 0.6484

 - Thermochemistry -
 -------------------
 Temperature   298.150 Kelvin.  Pressure   1.00000 Atm.
 Atom     1 has atomic number  5 and mass  11.00931

 Molecular mass:   268.09834 amu.
 Principal axes and moments of inertia in atomic units:
                           1         2         3
     Eigenvalues --  3110.841346391.048488749.43504
           X            0.79235   0.60851   0.04364
           Y           -0.00617  -0.06353   0.99796
           Z           -0.61004   0.79100   0.04658
 This molecule is an asymmetric top.
 Rotational symmetry number  1.
 Warning -- assumption of classical behavior for rotation
           may cause significant error
 Rotational temperatures (Kelvin)      0.02784     0.01355     0.00990
 Rotational constants (GHZ):           0.58015     0.28239     0.20627
 Zero-point vibrational energy     615823.2 (Joules/Mol)
                                  147.18528 (Kcal/Mol)
 Warning -- explicit consideration of  22 degrees of freedom as
           vibrations may cause significant error
 Vibrational temperatures:     25.54    99.14   106.93   134.26   172.17
          (Kelvin)            192.18   257.37   321.61   351.00   365.71
                              388.48   422.82   472.97   565.49   600.30
                              605.98   634.63   645.68   721.83   858.83
                              868.77   878.27   895.34   937.20   969.27
                              987.67  1031.14  1059.91  1102.61  1135.04
                             1139.79  1157.82  1253.32  1264.53  1278.06
                             1298.38  1300.65  1338.13  1358.47  1360.11
                             1379.06  1403.52  1449.42  1457.30  1465.28
                             1486.67  1490.98  1507.27  1526.84  1563.81
                             1575.15  1593.45  1645.28  1669.98  1670.21
                             1703.47  1717.21  1774.99  1794.81  1869.66
                             1878.28  1896.49  1939.55  2018.48  2042.84
                             2057.39  2093.13  2127.43  2129.23  2205.51
                             2226.41  2229.39  2323.44  2324.44  2386.14
                             2420.36  4621.95  4629.49  4637.84  4648.90
                             4659.32  4700.60  4703.31  4720.09  4722.15
                             4744.47  4744.62

 Zero-point correction=                           0.234555 (Hartree/Particle)
 Thermal correction to Energy=                    0.249582
 Thermal correction to Enthalpy=                  0.250526
 Thermal correction to Gibbs Free Energy=         0.191233
 Sum of electronic and zero-point Energies=           -911.959667
 Sum of electronic and thermal Energies=              -911.944640
 Sum of electronic and thermal Enthalpies=            -911.943696
 Sum of electronic and thermal Free Energies=         -912.002988

                     E (Thermal)             CV                S
                      KCal/Mol        Cal/Mol-Kelvin    Cal/Mol-Kelvin
 Total                  156.615             60.205            124.791
 Electronic               0.000              0.000              0.000
 Translational            0.889              2.981             42.658
 Rotational               0.889              2.981             33.519
 Vibrational            154.837             54.243             48.614
 Vibration     1          0.593              1.986              6.871
 Vibration     2          0.598              1.969              4.184
 Vibration     3          0.599              1.966              4.035
 Vibration     4          0.602              1.954              3.589
 Vibration     5          0.609              1.933              3.106
 Vibration     6          0.613              1.920              2.894
 Vibration     7          0.629              1.868              2.340
 Vibration     8          0.649              1.805              1.930
 Vibration     9          0.659              1.773              1.774
 Vibration    10          0.665              1.756              1.701
 Vibration    11          0.674              1.728              1.596
 Vibration    12          0.689              1.685              1.452
 Vibration    13          0.712              1.618              1.266
 Vibration    14          0.760              1.485              0.989
 Vibration    15          0.780              1.433              0.901
 Vibration    16          0.784              1.424              0.888
 Vibration    17          0.801              1.381              0.823
 Vibration    18          0.808              1.364              0.800
 Vibration    19          0.857              1.246              0.654
 Vibration    20          0.955              1.038              0.455
 Vibration    21          0.962              1.024              0.443
 Vibration    22          0.969              1.010              0.432

 Optimization completed on the basis of negligible forces.
    -- Stationary point found.
 Normal termination of Gaussian 16 at Tue Feb  1 06:57:52 2022.
