 Gaussian 16, Revision C.01,
 Gaussian 16:  ES64L-G16RevC.01  3-Jul-2019

 ----------------------------------------------------------------------
 #p m062x cc-pvdz scrf=(cpcm,solvent=Methanol) opt=(tight,calcfc) freq
 nosymm int=ultrafine fchk
 ----------------------------------------------------------------------

 -----------------------------------
 BDP-phenyl, optimized S0 in toluene
 -----------------------------------
 Symbolic Z-matrix:
 Charge =  0 Multiplicity = 1

 SCF Done:  E(RM062X) =  -912.194010671     A.U. after   12 cycles
 SCF Done:  E(RM062X) =  -912.194084728     A.U. after   10 cycles
 SCF Done:  E(RM062X) =  -912.194084812     A.U. after    8 cycles
 SCF Done:  E(RM062X) =  -912.194084814     A.U. after    5 cycles
 SCF Done:  E(RM062X) =  -912.194084814     A.U. after    3 cycles
 Optimization completed.
    -- Stationary point found.
 Normal termination of Gaussian 16 at Tue Feb  1 06:47:52 2022.

 -------------------------------------------------------------------
 #P Geom=AllCheck Guess=TCheck SCRF=Check GenChk RM062X/CC-pVDZ Freq
 -------------------------------------------------------------------

 Structure from the checkpoint file:  "bodipy.chk"
 -----------------------------------
 BDP-phenyl, optimized S0 in toluene
 -----------------------------------
 Charge =  0 Multiplicity = 1

                          Input orientation:
 ---------------------------------------------------------------------
 Center     Atomic      Atomic             Coordinates (Angstroms)
 Number     Number       Type             X           Y           Z
 ---------------------------------------------------------------------
      1          5           0       -0.008458   -0.086510    0.007828
      2          7           0        0.003513   -0.038318    1.559305
      3          6           0        1.093673    0.019428    2.333023
      4          1           0        2.087389    0.029354    1.890445
      5          6           0        0.723311    0.071234    3.691686
      6          1           0        1.406027    0.130197    4.533312
      7          6           0       -0.665293    0.049617    3.726363
      8          1           0       -1.306298    0.101841    4.601795
      9          6           0       -1.114532   -0.026587    2.383165
     10          6           0       -2.412312   -0.010862    1.845101
     11          7           0       -1.498810    0.047176   -0.408265
     12          6           0       -1.957979    0.065821   -1.664986
     13          1           0       -1.268825    0.077569   -2.506679
     14          6           0       -3.366961    0.052684   -1.668287
     15          1           0       -3.999566    0.062814   -2.550125
     16          6           0       -3.767332    0.015700   -0.338482
     17          1           0       -4.782883   -0.021025    0.045089
     18          6           0       -2.589523    0.021937    0.451724
     19          9           0        0.743632    0.965443   -0.513968
     20          9           0        0.503212   -1.305561   -0.443712
     21          6           0       -3.584869   -0.015436    2.745615
     22          6           0       -3.700155   -0.989957    3.748399
     23          1           0       -2.930748   -1.757075    3.845381
     24          6           0       -4.807359   -0.996282    4.593319
     25          1           0       -4.895649   -1.765467    5.360839
     26          6           0       -5.799463   -0.024531    4.456230
     27          6           0       -5.685905    0.952256    3.466106
     28          1           0       -6.454013    1.718789    3.361446
     29          6           0       -4.588514    0.955288    2.608516
     30          1           0       -4.490257    1.728453    1.845457
     31          1           0       -6.662461   -0.027994    5.122778
 ---------------------------------------------------------------------

 SCF Done:  E(RM062X) =  -912.194084814     A.U. after    1 cycles

 Alpha  occ. eigenvalues --  -25.21451 -25.21254 -14.80339 -14.80325 -10.62294
 Alpha  occ. eigenvalues --  -10.60566 -10.60565 -10.59893 -10.59881 -10.58519
 Alpha  occ. eigenvalues --  -10.57208 -10.57205 -10.57190 -10.57179 -10.56761
 Alpha  occ. eigenvalues --  -10.56620 -10.56603 -10.55806 -10.55797  -7.13711
 Alpha  occ. eigenvalues --   -1.31874  -1.28539  -1.11710  -1.09713  -0.98673
 Alpha  occ. eigenvalues --   -0.93352  -0.89914  -0.88446  -0.85695  -0.85137
 Alpha  occ. eigenvalues --   -0.82987  -0.76563  -0.70446  -0.70131  -0.70031
 Alpha  occ. eigenvalues --   -0.66770  -0.66628  -0.66215  -0.62521  -0.60786
 Alpha  occ. eigenvalues --   -0.60058  -0.57724  -0.56982  -0.54366  -0.53723
 Alpha  occ. eigenvalues --   -0.53225  -0.52269  -0.51596  -0.50778  -0.50462
 Alpha  occ. eigenvalues --   -0.49687  -0.49652  -0.48161  -0.47005  -0.46825
 Alpha  occ. eigenvalues --   -0.46674  -0.45550  -0.45405  -0.45005  -0.44631
 Alpha  occ. eigenvalues --   -0.42153  -0.41576  -0.41343  -0.37155  -0.32985
 Alpha  occ. eigenvalues --   -0.32395  -0.31933  -0.31292  -0.26875
 Alpha virt. eigenvalues --   -0.08890   0.01155   0.01301   0.06035   0.07623
 Alpha virt. eigenvalues --    0.09535   0.10585   0.12451   0.12683   0.14004
 Alpha virt. eigenvalues --    0.14243   0.14612   0.15568   0.15907   0.16947

 Mulliken charges:
               1
     1  B    0.176792
     2  N   -0.177356
     3  C    0.096802
     4  H    0.059873
     5  C   -0.032632
     6  H    0.025225
     7  C   -0.024830
     8  H    0.027100
     9  C    0.094420
    10  C    0.112813
    11  N   -0.178485
    12  C    0.097161
    13  H    0.059986
    14  C   -0.032013
    15  H    0.025238
    16  C   -0.026957
    17  H    0.027708
    18  C    0.097238
    19  F   -0.238761
    20  F   -0.236736
    21  C   -0.101442
    22  C    0.005075
    23  H    0.021084
    24  C    0.005044
    25  H    0.028737
    26  C    0.001252
    27  C    0.004941
    28  H    0.028732
    29  C    0.004272
    30  H    0.021707
    31  H    0.028013
 Sum of Mulliken charges =  -0.00000

 Dipole moment (field-independent basis, Debye):
    X=             -5.6986    Y=              0.4829    Z=              4.3754  Tot=              7.2008
 Quadrupole moment (field-independent basis, Debye-Ang):
   XX=            -79.9776   YY=           -117.3269   ZZ=            -85.2131
   XY=             -2.6562   XZ=             -9.9623   YZ=             -3.4397

  Exact polarizability:     360.080     -16.709     133.406      45.896     -23.566     385.817
 Approx polarizability:     316.594     -16.166     146.710      29.881     -22.770     333.375

                      1                      2                      3
                      A                      A                      A
 Frequencies --     17.6786                68.9076                74.3070
 Red. masses --      9.2380                 3.9733                 4.9426
 Frc consts  --      0.0017                 0.0111                 0.0161
 IR Inten    --      4.2531                 0.8833                 0.9005

                      4                      5                      6
                      A                      A                      A
 Frequencies --     93.3170               119.6511               133.5650
 Red. masses --      4.5124                 5.7961                 7.4716
 Frc consts  --      0.0232                 0.0489                 0.0785
 IR Inten    --      1.0862                 1.1068                 0.0540

                      7                      8                      9
                      A                      A                      A
 Frequencies --    178.8644               223.5107               243.9351
 Red. masses --      4.5330                 6.4729                 6.5348
 Frc consts  --      0.0854                 0.1905                 0.2291
 IR Inten    --      0.5525                 1.1659                 7.7726

                     10                     11                     12
                      A                      A                      A
 Frequencies --    254.1895               269.9847               293.8535
 Red. masses --      4.6874                 6.6842                 5.0201
 Frc consts  --      0.1784                 0.2871                 0.2554
 IR Inten    --      2.6278                 5.4621                 0.8700

                     13                     14                     15
                      A                      A                      A
 Frequencies --    328.7401               393.0127               417.2326
 Red. masses --      8.4996                 7.2410                 2.9974
 Frc consts  --      0.5412                 0.6590                 0.3074
 IR Inten    --      1.5324                11.2950                 3.7445

                     16                     17                     18
                      A                      A                      A
 Frequencies --    421.1798               441.0657               448.7754
 Red. masses --      6.3983                 7.2807                 8.6383
 Frc consts  --      0.6687                 0.8345                 1.0250
 IR Inten    --     89.7250                 0.7259                 4.3176

                     19                     20                     21
                      A                      A                      A
 Frequencies --    501.7489               596.9288               603.8402
 Red. masses --      4.0130                 3.3015                 7.5889
 Frc consts  --      0.5952                 0.6931                 1.6303
 IR Inten    --     22.5939                 8.9779                 6.9061

                     22                     23                     24
                      A                      A                      A
 Frequencies --    610.4394               622.3083               651.4202
 Red. masses --      3.0940                 5.7140                 4.9748
 Frc consts  --      0.6793                 1.3038                 1.2438
 IR Inten    --      0.7425                 4.1968                42.3525

                     25                     26                     27
                      A                      A                      A
 Frequencies --    673.7064               686.5011               716.7002
 Red. masses --      6.5825                 4.7868                 2.3750
 Frc consts  --      1.7603                 1.3292                 0.7188
 IR Inten    --     29.4186                 0.0178                12.2837

                     28                     29                     30
                      A                      A                      A
 Frequencies --    736.6992               766.3255               788.8480
 Red. masses --      2.3390                 3.2273                 1.2678
 Frc consts  --      0.7479                 1.1166                 0.4648
 IR Inten    --    188.2618                65.3245                 0.2503

                     31                     32                     33
                      A                      A                      A
 Frequencies --    792.1637               804.7080               871.1292
 Red. masses --      1.7552                 2.1447                 6.7375
 Frc consts  --      0.6490                 0.8183                 3.0124
 IR Inten    --     38.5810                62.7350                 0.2042

                     34                     35                     36
                      A                      A                      A
 Frequencies --    878.9203               888.3196               902.3797
 Red. masses --      1.2581                 5.2463                 1.3964
 Frc consts  --      0.5726                 2.4392                 0.6699
 IR Inten    --     11.6286                10.0197                 0.3209

                     37                     38                     39
                      A                      A                      A
 Frequencies --    903.9667               930.1035               944.0911
 Red. masses --      1.4324                 4.5865                 1.4027
 Frc consts  --      0.6896                 2.3377                 0.7366
 IR Inten    --      4.2733                80.2691                 3.2642

                     40                     41                     42
                      A                      A                      A
 Frequencies --    945.2250               958.4412               975.4476
 Red. masses --      1.3997                 1.6073                 1.8445
 Frc consts  --      0.7368                 0.8699                 1.0341
 IR Inten    --      2.6759                 0.5092                29.3249

                     43                     44                     45
                      A                      A                      A
 Frequencies --   1007.4537              1012.8377              1018.4951
 Red. masses --      4.0206                 1.3978                 4.0002
 Frc consts  --      2.4043                 0.8449                 2.4448
 IR Inten    --     33.3693                19.0548                76.4241

                     46                     47                     48
                      A                      A                      A
 Frequencies --   1033.2882              1036.2178              1047.7502
 Red. masses --      1.3706                 1.3213                 1.5451
 Frc consts  --      0.8622                 0.8359                 0.9993
 IR Inten    --     31.2296                 7.0831               219.5581

                     49                     50                     51
                      A                      A                      A
 Frequencies --   1061.2413              1087.1124              1094.8469
 Red. masses --      1.8317                 1.9909                 1.6049
 Frc consts  --      1.2155                 1.3862                 1.1334
 IR Inten    --      0.5070              1322.5962               113.0112

                     52                     53                     54
                      A                      A                      A
 Frequencies --   1107.5247              1143.6857              1160.7815
 Red. masses --      1.4546                 2.8161                 1.0976
 Frc consts  --      1.0512                 2.1702                 0.8714
 IR Inten    --     27.1508               927.8627                 1.8374

                     55                     56                     57
                      A                      A                      A
 Frequencies --   1161.5470              1184.0337              1193.5488
 Red. masses --     10.1516                 1.1667                 4.4634
 Frc consts  --      8.0697                 0.9637                 3.7463
 IR Inten    --    356.9186                 1.5190               165.9936

                     58                     59                     60
                      A                      A                      A
 Frequencies --   1233.6815              1247.4139              1299.4855
 Red. masses --      1.3885                 2.0485                 4.7568
 Frc consts  --      1.2451                 1.8780                 4.7327
 IR Inten    --     51.5889               256.2340               119.3458

                     61                     62                     63
                      A                      A                      A
 Frequencies --   1305.7922              1318.1416              1348.0794
 Red. masses --      4.4030                 1.5987                 3.9460
 Frc consts  --      4.4233                 1.6366                 4.2251
 IR Inten    --   1306.6167                 0.3338                 4.8574

                     64                     65                     66
                      A                      A                      A
 Frequencies --   1403.0011              1419.8871              1430.0654
 Red. masses --      4.9308                 5.7082                 3.4255
 Frc consts  --      5.7185                 6.7805                 4.1275
 IR Inten    --     11.4043                 0.8023               633.4724

                     67                     68                     69
                      A                      A                      A
 Frequencies --   1454.8212              1478.6619              1479.9882
 Red. masses --      4.4167                 2.5499                 6.3253
 Frc consts  --      5.5076                 3.2848                 8.1630
 IR Inten    --    355.7457                22.1837               143.2740

                     70                     71                     72
                      A                      A                      A
 Frequencies --   1532.9416              1547.5534              1549.6064
 Red. masses --      2.9659                 6.2047                 5.0043
 Frc consts  --      4.1064                 8.7552                 7.0801
 IR Inten    --      3.3378               127.3127                69.9974

                     73                     74                     75
                      A                      A                      A
 Frequencies --   1614.9761              1615.8574              1658.5203
 Red. masses --      6.5542                 7.9075                 6.6096
 Frc consts  --     10.0716                12.1645                10.7119
 IR Inten    --     35.0483              1627.6499                87.7864

                     76                     77                     78
                      A                      A                      A
 Frequencies --   1682.3052              3212.3610              3217.6214
 Red. masses --      6.5616                 1.0862                 1.0892
 Frc consts  --     10.9414                 6.6042                 6.6438
 IR Inten    --     17.5543                 0.4652                 0.4752

                     79                     80                     81
                      A                      A                      A
 Frequencies --   3223.4315              3231.1178              3238.3558
 Red. masses --      1.0930                 1.0970                 1.1006
 Frc consts  --      6.6912                 6.7477                 6.8005
 IR Inten    --      4.0362                10.8340                12.2195

                     82                     83                     84
                      A                      A                      A
 Frequencies --   3267.1176              3268.9989              3280.6087
 Red. masses --      1.0950                 1.0945                 1.0952
 Frc consts  --      6.8862                 6.8910                 6.9449
 IR Inten    --      2.7679                 2.4369                 0.1788

                     85                     86                     87
                      A                      A                      A
 Frequencies --   3282.0403              3297.5738              3297.6835
 Red. masses --      1.0953                 1.1071                 1.1069
 Frc consts  --      6.9516                 7.0929                 7.0920
 IR Inten    --      0.1845                 0.4259                 0.6246

 - Thermochemistry -
 -------------------
 Temperature   298.150 Kelvin.  Pressure   1.00000 Atm.
 Atom     1 has atomic number  5 and mass  11.00931

 Molecular mass:   268.09834 amu.
 Principal axes and moments of inertia in atomic units:
                           1         2         3
     Eigenvalues --  3110.838886390.989688749.10798
           X            0.79235   0.60851   0.04362
           Y           -0.00619  -0.06347   0.99796
           Z           -0.61004   0.79100   0.04652
 This molecule is an asymmetric top.
 Rotational symmetry number  1.
 Warning -- assumption of classical behavior for rotation
           may cause significant error
 Rotational temperatures (Kelvin)      0.02784     0.01355     0.00990
 Rotational constants (GHZ):           0.58015     0.28239     0.20628
 Zero-point vibrational energy     615838.7 (Joules/Mol)
                                  147.18898 (Kcal/Mol)
 Warning -- explicit consideration of  22 degrees of freedom as
           vibrations may cause significant error
 Vibrational temperatures:     25.44    99.14   106.91   134.26   172.15
          (Kelvin)            192.17   257.35   321.58   350.97   365.72
                              388.45   422.79   472.98   565.46   600.30
                              605.98   634.60   645.69   721.90   858.85
                              868.79   878.29   895.36   937.25   969.31
                              987.72  1031.17  1059.95  1102.57  1134.98
                             1139.75  1157.80  1253.36  1264.57  1278.09
                             1298.32  1300.61  1338.21  1358.34  1359.97
                             1378.98  1403.45  1449.50  1457.25  1465.39
                             1486.67  1490.89  1507.48  1526.89  1564.11
                             1575.24  1593.48  1645.51  1670.11  1671.21
                             1703.56  1717.25  1774.99  1794.75  1869.67
                             1878.74  1896.51  1939.59  2018.61  2042.90
                             2057.55  2093.16  2127.46  2129.37  2205.56
                             2226.58  2229.54  2323.59  2324.86  2386.24
                             2420.46  4621.87  4629.44  4637.80  4648.86
                             4659.27  4700.65  4703.36  4720.06  4722.12
                             4744.47  4744.63

 Zero-point correction=                           0.234561 (Hartree/Particle)
 Thermal correction to Energy=                    0.249588
 Thermal correction to Enthalpy=                  0.250532
 Thermal correction to Gibbs Free Energy=         0.191235
 Sum of electronic and zero-point Energies=           -911.959524
 Sum of electronic and thermal Energies=              -911.944497
 Sum of electronic and thermal Enthalpies=            -911.943553
 Sum of electronic and thermal Free Energies=         -912.002850

                     E (Thermal)             CV                S
                      KCal/Mol        Cal/Mol-Kelvin    Cal/Mol-Kelvin
 Total                  156.619             60.204            124.800
 Electronic               0.000              0.000              0.000
 Translational            0.889              2.981             42.658
 Rotational               0.889              2.981             33.519
 Vibrational            154.841             54.242             48.623
 Vibration     1          0.593              1.986              6.879
 Vibration     2          0.598              1.969              4.184
 Vibration     3          0.599              1.966              4.036
 Vibration     4          0.602              1.954              3.589
 Vibration     5          0.609              1.933              3.106
 Vibration     6          0.613              1.920              2.894
 Vibration     7          0.629              1.868              2.340
 Vibration     8          0.649              1.805              1.930
 Vibration     9          0.659              1.773              1.774
 Vibration    10          0.665              1.756              1.701
 Vibration    11          0.674              1.728              1.596
 Vibration    12          0.689              1.685              1.452
 Vibration    13          0.712              1.618              1.266
 Vibration    14          0.760              1.485              0.989
 Vibration    15          0.780              1.433              0.901
 Vibration    16          0.784              1.424              0.888
 Vibration    17          0.801              1.381              0.823
 Vibration    18          0.808              1.364              0.799
 Vibration    19          0.857              1.246              0.654
 Vibration    20          0.955              1.038              0.455
 Vibration    21          0.962              1.024              0.443
 Vibration    22          0.969              1.010              0.432

 Optimization completed on the basis of negligible forces.
    -- Stationary point found.
 Normal termination of Gaussian 16 at Tue Feb  1 06:57:31 2022.
