 Gaussian 16, Revision C.01,
 Gaussian 16:  ES64L-G16RevC.01  3-Jul-2019

 ----------------------------------------------------------------------
 #p m062x cc-pvdz scrf=(cpcm,solvent=n,n-DiMethylFormamide) opt=(tight,
 calcfc) freq nosymm int=ultrafine fchk
 ----------------------------------------------------------------------

 -----------------------------------
 BDP-phenyl, optimized S0 in toluene
 -----------------------------------
 Symbolic Z-matrix:
 Charge =  0 Multiplicity = 1

 SCF Done:  E(RM062X) =  -912.194064777     A.U. after   12 cycles
 SCF Done:  E(RM062X) =  -912.194140416     A.U. after   10 cycles
 SCF Done:  E(RM062X) =  -912.194140504     A.U. after    8 cycles
 SCF Done:  E(RM062X) =  -912.194140506     A.U. after    5 cycles
 SCF Done:  E(RM062X) =  -912.194140506     A.U. after    3 cycles
 Optimization completed.
    -- Stationary point found.
 Normal termination of Gaussian 16 at Tue Feb  1 06:47:07 2022.

 -------------------------------------------------------------------
 #P Geom=AllCheck Guess=TCheck SCRF=Check GenChk RM062X/CC-pVDZ Freq
 -------------------------------------------------------------------

 Structure from the checkpoint file:  "bodipy.chk"
 -----------------------------------
 BDP-phenyl, optimized S0 in toluene
 -----------------------------------
 Charge =  0 Multiplicity = 1

                          Input orientation:
 ---------------------------------------------------------------------
 Center     Atomic      Atomic             Coordinates (Angstroms)
 Number     Number       Type             X           Y           Z
 ---------------------------------------------------------------------
      1          5           0       -0.008505   -0.086374    0.007861
      2          7           0        0.003511   -0.038358    1.559292
      3          6           0        1.093694    0.019302    2.333024
      4          1           0        2.087426    0.029200    1.890476
      5          6           0        0.723340    0.071069    3.691674
      6          1           0        1.406060    0.129952    4.533303
      7          6           0       -0.665277    0.049522    3.726357
      8          1           0       -1.306257    0.101725    4.601807
      9          6           0       -1.114534   -0.026608    2.383170
     10          6           0       -2.412331   -0.010842    1.845121
     11          7           0       -1.498803    0.047214   -0.408259
     12          6           0       -1.957984    0.065825   -1.665001
     13          1           0       -1.268858    0.077573   -2.506718
     14          6           0       -3.366950    0.052663   -1.668295
     15          1           0       -3.999559    0.062769   -2.550132
     16          6           0       -3.767323    0.015700   -0.338479
     17          1           0       -4.782882   -0.021027    0.045073
     18          6           0       -2.589528    0.021973    0.451733
     19          9           0        0.743569    0.965684   -0.513882
     20          9           0        0.503373   -1.305326   -0.443879
     21          6           0       -3.584881   -0.015414    2.745628
     22          6           0       -3.700098   -0.989850    3.748511
     23          1           0       -2.930653   -1.756919    3.845584
     24          6           0       -4.807307   -0.996168    4.593424
     25          1           0       -4.895545   -1.765282    5.361020
     26          6           0       -5.799479   -0.024495    4.456233
     27          6           0       -5.685989    0.952205    3.466011
     28          1           0       -6.454150    1.718672    3.361269
     29          6           0       -4.588598    0.955229    2.608421
     30          1           0       -4.490408    1.728336    1.845294
     31          1           0       -6.662478   -0.027952    5.122778
 ---------------------------------------------------------------------

 SCF Done:  E(RM062X) =  -912.194140506     A.U. after    1 cycles

 Alpha  occ. eigenvalues --  -25.21461 -25.21265 -14.80342 -14.80329 -10.62296
 Alpha  occ. eigenvalues --  -10.60568 -10.60568 -10.59896 -10.59883 -10.58517
 Alpha  occ. eigenvalues --  -10.57205 -10.57202 -10.57191 -10.57181 -10.56757
 Alpha  occ. eigenvalues --  -10.56616 -10.56598 -10.55807 -10.55798  -7.13719
 Alpha  occ. eigenvalues --   -1.31884  -1.28549  -1.11713  -1.09716  -0.98671
 Alpha  occ. eigenvalues --   -0.93351  -0.89917  -0.88448  -0.85691  -0.85136
 Alpha  occ. eigenvalues --   -0.82989  -0.76564  -0.70443  -0.70135  -0.70031
 Alpha  occ. eigenvalues --   -0.66770  -0.66630  -0.66216  -0.62523  -0.60784
 Alpha  occ. eigenvalues --   -0.60065  -0.57733  -0.56982  -0.54369  -0.53721
 Alpha  occ. eigenvalues --   -0.53230  -0.52269  -0.51599  -0.50783  -0.50464
 Alpha  occ. eigenvalues --   -0.49686  -0.49650  -0.48164  -0.47006  -0.46827
 Alpha  occ. eigenvalues --   -0.46681  -0.45556  -0.45410  -0.45009  -0.44630
 Alpha  occ. eigenvalues --   -0.42159  -0.41573  -0.41339  -0.37156  -0.32988
 Alpha  occ. eigenvalues --   -0.32394  -0.31932  -0.31289  -0.26878
 Alpha virt. eigenvalues --   -0.08893   0.01157   0.01304   0.06032   0.07621
 Alpha virt. eigenvalues --    0.09537   0.10588   0.12451   0.12685   0.14006
 Alpha virt. eigenvalues --    0.14244   0.14613   0.15571   0.15908   0.16951

 Mulliken charges:
               1
     1  B    0.176715
     2  N   -0.177362
     3  C    0.096727
     4  H    0.059904
     5  C   -0.032642
     6  H    0.025302
     7  C   -0.024816
     8  H    0.027182
     9  C    0.094357
    10  C    0.112893
    11  N   -0.178488
    12  C    0.097083
    13  H    0.060017
    14  C   -0.032024
    15  H    0.025315
    16  C   -0.026942
    17  H    0.027790
    18  C    0.097167
    19  F   -0.238872
    20  F   -0.236866
    21  C   -0.101467
    22  C    0.005053
    23  H    0.021119
    24  C    0.005019
    25  H    0.028799
    26  C    0.001241
    27  C    0.004917
    28  H    0.028795
    29  C    0.004255
    30  H    0.021748
    31  H    0.028080
 Sum of Mulliken charges =  -0.00000

 Dipole moment (field-independent basis, Debye):
    X=             -5.7062    Y=              0.4827    Z=              4.3813  Tot=              7.2104
 Quadrupole moment (field-independent basis, Debye-Ang):
   XX=            -79.9364   YY=           -117.3275   ZZ=            -85.1807
   XY=             -2.6589   XZ=             -9.9780   YZ=             -3.4421

  Exact polarizability:     360.717     -16.760     133.581      46.117     -23.634     386.574
 Approx polarizability:     316.600     -16.171     146.702      29.860     -22.774     333.369

                      1                      2                      3
                      A                      A                      A
 Frequencies --     17.7070                68.9066                74.3131
 Red. masses --      9.2372                 3.9732                 4.9426
 Frc consts  --      0.0017                 0.0111                 0.0161
 IR Inten    --      4.2635                 0.8884                 0.9019

                      4                      5                      6
                      A                      A                      A
 Frequencies --     93.3158               119.6566               133.5687
 Red. masses --      4.5124                 5.7963                 7.4698
 Frc consts  --      0.0232                 0.0489                 0.0785
 IR Inten    --      1.0866                 1.1107                 0.0542

                      7                      8                      9
                      A                      A                      A
 Frequencies --    178.8723               223.5188               243.9454
 Red. masses --      4.5337                 6.4735                 6.5350
 Frc consts  --      0.0855                 0.1906                 0.2291
 IR Inten    --      0.5556                 1.1674                 7.8339

                     10                     11                     12
                      A                      A                      A
 Frequencies --    254.1857               269.9949               293.8627
 Red. masses --      4.6872                 6.6837                 5.0204
 Frc consts  --      0.1784                 0.2871                 0.2554
 IR Inten    --      2.6362                 5.4748                 0.8717

                     13                     14                     15
                      A                      A                      A
 Frequencies --    328.7358               393.0219               417.2307
 Red. masses --      8.5003                 7.2406                 2.9973
 Frc consts  --      0.5412                 0.6590                 0.3074
 IR Inten    --      1.5401                11.3343                 3.7627

                     16                     17                     18
                      A                      A                      A
 Frequencies --    421.1781               441.0753               448.7724
 Red. masses --      6.3983                 7.2807                 8.6389
 Frc consts  --      0.6687                 0.8345                 1.0251
 IR Inten    --     90.3145                 0.7296                 4.3420

                     19                     20                     21
                      A                      A                      A
 Frequencies --    501.7290               596.9242               603.8332
 Red. masses --      4.0133                 3.3011                 7.5863
 Frc consts  --      0.5952                 0.6930                 1.6297
 IR Inten    --     22.7467                 9.0050                 6.9156

                     22                     23                     24
                      A                      A                      A
 Frequencies --    610.4360               622.3022               651.4071
 Red. masses --      3.0943                 5.7141                 4.9746
 Frc consts  --      0.6793                 1.3038                 1.2437
 IR Inten    --      0.7465                 4.2064                42.5165

                     25                     26                     27
                      A                      A                      A
 Frequencies --    673.6955               686.4874               716.6911
 Red. masses --      6.5826                 4.7879                 2.3744
 Frc consts  --      1.7603                 1.3294                 0.7186
 IR Inten    --     29.5088                 0.0182                12.3278

                     28                     29                     30
                      A                      A                      A
 Frequencies --    736.6900               766.3375               788.8663
 Red. masses --      2.3395                 3.2289                 1.2677
 Frc consts  --      0.7481                 1.1172                 0.4648
 IR Inten    --    189.1449                65.6548                 0.2516

                     31                     32                     33
                      A                      A                      A
 Frequencies --    792.1748               804.7157               871.1182
 Red. masses --      1.7551                 2.1442                 6.7373
 Frc consts  --      0.6489                 0.8181                 3.0123
 IR Inten    --     38.6752                62.8620                 0.2090

                     34                     35                     36
                      A                      A                      A
 Frequencies --    878.9099               888.3097               902.3954
 Red. masses --      1.2582                 5.2446                 1.3965
 Frc consts  --      0.5726                 2.4383                 0.6700
 IR Inten    --     11.6934                10.0351                 0.3215

                     37                     38                     39
                      A                      A                      A
 Frequencies --    903.9789               930.0793               944.1290
 Red. masses --      1.4325                 4.5883                 1.4026
 Frc consts  --      0.6897                 2.3385                 0.7366
 IR Inten    --      4.2837                80.7088                 3.2739

                     40                     41                     42
                      A                      A                      A
 Frequencies --    945.2645               958.4618               975.4663
 Red. masses --      1.3997                 1.6068                 1.8448
 Frc consts  --      0.7369                 0.8697                 1.0342
 IR Inten    --      2.6843                 0.4997                29.4993

                     43                     44                     45
                      A                      A                      A
 Frequencies --   1007.4297              1012.8519              1018.4654
 Red. masses --      4.0234                 1.3985                 4.0023
 Frc consts  --      2.4059                 0.8453                 2.4460
 IR Inten    --     33.7983                19.2335                76.6228

                     46                     47                     48
                      A                      A                      A
 Frequencies --   1033.2867              1036.2442              1047.6904
 Red. masses --      1.3709                 1.3211                 1.5441
 Frc consts  --      0.8624                 0.8358                 0.9986
 IR Inten    --     31.8873                 7.0413               219.9580

                     49                     50                     51
                      A                      A                      A
 Frequencies --   1061.2274              1087.0273              1094.8208
 Red. masses --      1.8320                 1.9937                 1.6039
 Frc consts  --      1.2156                 1.3880                 1.1327
 IR Inten    --      0.4925              1334.5516               112.5968

                     52                     53                     54
                      A                      A                      A
 Frequencies --   1107.5169              1143.6203              1160.7586
 Red. masses --      1.4544                 2.8141                 1.1095
 Frc consts  --      1.0511                 2.1685                 0.8807
 IR Inten    --     27.1483               930.2316                 5.2053

                     55                     56                     57
                      A                      A                      A
 Frequencies --   1161.2531              1184.0073              1193.5367
 Red. masses --      9.2355                 1.1665                 4.4632
 Frc consts  --      7.3378                 0.9635                 3.7460
 IR Inten    --    354.5666                 1.4795               166.0445

                     58                     59                     60
                      A                      A                      A
 Frequencies --   1233.6801              1247.4311              1299.4824
 Red. masses --      1.3886                 2.0480                 4.7571
 Frc consts  --      1.2451                 1.8777                 4.7330
 IR Inten    --     51.7489               258.1716               119.8628

                     61                     62                     63
                      A                      A                      A
 Frequencies --   1305.6603              1318.1365              1348.0697
 Red. masses --      4.4005                 1.5987                 3.9460
 Frc consts  --      4.4199                 1.6366                 4.2251
 IR Inten    --   1310.3569                 0.3187                 4.8896

                     64                     65                     66
                      A                      A                      A
 Frequencies --   1402.9660              1419.8708              1430.0204
 Red. masses --      4.9317                 5.7117                 3.4255
 Frc consts  --      5.7192                 6.7844                 4.1272
 IR Inten    --     11.3918                 0.8524               635.7317

                     67                     68                     69
                      A                      A                      A
 Frequencies --   1454.8116              1478.6513              1479.9491
 Red. masses --      4.4169                 2.5499                 6.3253
 Frc consts  --      5.5078                 3.2848                 8.1625
 IR Inten    --    357.3457                22.2480               143.3974

                     70                     71                     72
                      A                      A                      A
 Frequencies --   1532.9283              1547.5051              1549.5647
 Red. masses --      2.9657                 6.2035                 5.0041
 Frc consts  --      4.1060                 8.7528                 7.0794
 IR Inten    --      3.2980               127.7173                70.3186

                     73                     74                     75
                      A                      A                      A
 Frequencies --   1614.9343              1615.7394              1658.4908
 Red. masses --      6.5545                 7.9009                 6.6087
 Frc consts  --     10.0716                12.1526                10.7101
 IR Inten    --     38.1086              1630.2714                87.6638

                     76                     77                     78
                      A                      A                      A
 Frequencies --   1682.2764              3212.3825              3217.6360
 Red. masses --      6.5618                 1.0862                 1.0892
 Frc consts  --     10.9412                 6.6043                 6.6439
 IR Inten    --     17.6662                 0.4657                 0.4718

                     79                     80                     81
                      A                      A                      A
 Frequencies --   3223.4427              3231.1307              3238.3682
 Red. masses --      1.0930                 1.0970                 1.1006
 Frc consts  --      6.6913                 6.7478                 6.8005
 IR Inten    --      4.0366                10.8686                12.2478

                     82                     83                     84
                      A                      A                      A
 Frequencies --   3267.1023              3268.9855              3280.6151
 Red. masses --      1.0950                 1.0945                 1.0952
 Frc consts  --      6.8861                 6.8910                 6.9449
 IR Inten    --      2.7656                 2.4351                 0.1809

                     85                     86                     87
                      A                      A                      A
 Frequencies --   3282.0465              3297.5736              3297.6811
 Red. masses --      1.0953                 1.1071                 1.1069
 Frc consts  --      6.9516                 7.0929                 7.0920
 IR Inten    --      0.1866                 0.4286                 0.6342

 - Thermochemistry -
 -------------------
 Temperature   298.150 Kelvin.  Pressure   1.00000 Atm.
 Atom     1 has atomic number  5 and mass  11.00931

 Molecular mass:   268.09834 amu.
 Principal axes and moments of inertia in atomic units:
                           1         2         3
     Eigenvalues --  3110.839856391.013788749.24121
           X            0.79235   0.60851   0.04363
           Y           -0.00618  -0.06349   0.99796
           Z           -0.61004   0.79100   0.04654
 This molecule is an asymmetric top.
 Rotational symmetry number  1.
 Warning -- assumption of classical behavior for rotation
           may cause significant error
 Rotational temperatures (Kelvin)      0.02784     0.01355     0.00990
 Rotational constants (GHZ):           0.58015     0.28239     0.20627
 Zero-point vibrational energy     615832.4 (Joules/Mol)
                                  147.18747 (Kcal/Mol)
 Warning -- explicit consideration of  22 degrees of freedom as
           vibrations may cause significant error
 Vibrational temperatures:     25.48    99.14   106.92   134.26   172.16
          (Kelvin)            192.18   257.36   321.59   350.98   365.72
                              388.46   422.80   472.98   565.47   600.30
                              605.98   634.61   645.68   721.88   858.84
                              868.78   878.28   895.35   937.23   969.30
                              987.70  1031.16  1059.93  1102.59  1135.00
                             1139.76  1157.81  1253.34  1264.56  1278.08
                             1298.35  1300.62  1338.18  1358.39  1360.02
                             1379.01  1403.48  1449.47  1457.27  1465.34
                             1486.67  1490.92  1507.39  1526.87  1563.99
                             1575.20  1593.47  1645.41  1670.07  1670.78
                             1703.52  1717.23  1774.99  1794.78  1869.67
                             1878.55  1896.50  1939.57  2018.56  2042.88
                             2057.48  2093.15  2127.45  2129.32  2205.54
                             2226.51  2229.48  2323.53  2324.69  2386.20
                             2420.42  4621.90  4629.46  4637.82  4648.88
                             4659.29  4700.63  4703.34  4720.07  4722.13
                             4744.47  4744.63

 Zero-point correction=                           0.234558 (Hartree/Particle)
 Thermal correction to Energy=                    0.249585
 Thermal correction to Enthalpy=                  0.250529
 Thermal correction to Gibbs Free Energy=         0.191234
 Sum of electronic and zero-point Energies=           -911.959582
 Sum of electronic and thermal Energies=              -911.944555
 Sum of electronic and thermal Enthalpies=            -911.943611
 Sum of electronic and thermal Free Energies=         -912.002906

                     E (Thermal)             CV                S
                      KCal/Mol        Cal/Mol-Kelvin    Cal/Mol-Kelvin
 Total                  156.617             60.204            124.797
 Electronic               0.000              0.000              0.000
 Translational            0.889              2.981             42.658
 Rotational               0.889              2.981             33.519
 Vibrational            154.840             54.243             48.620
 Vibration     1          0.593              1.986              6.876
 Vibration     2          0.598              1.969              4.184
 Vibration     3          0.599              1.966              4.036
 Vibration     4          0.602              1.954              3.589
 Vibration     5          0.609              1.933              3.106
 Vibration     6          0.613              1.920              2.894
 Vibration     7          0.629              1.868              2.340
 Vibration     8          0.649              1.805              1.930
 Vibration     9          0.659              1.773              1.774
 Vibration    10          0.665              1.756              1.701
 Vibration    11          0.674              1.728              1.596
 Vibration    12          0.689              1.685              1.452
 Vibration    13          0.712              1.618              1.266
 Vibration    14          0.760              1.485              0.989
 Vibration    15          0.780              1.433              0.901
 Vibration    16          0.784              1.424              0.888
 Vibration    17          0.801              1.381              0.823
 Vibration    18          0.808              1.364              0.799
 Vibration    19          0.857              1.246              0.654
 Vibration    20          0.955              1.038              0.455
 Vibration    21          0.962              1.024              0.443
 Vibration    22          0.969              1.010              0.432

 Optimization completed on the basis of negligible forces.
    -- Stationary point found.
 Normal termination of Gaussian 16 at Tue Feb  1 06:56:54 2022.
