 Gaussian 09, Revision D.01,
 Gaussian 09:  EM64L-G09RevD.01 24-Apr-2013

 ----------------------------------------------------------------------
 #p m062x cc-pvdz scrf=(cpcm,solvent=Toluene) opt=(tight,calcfc) freq n
 osymm int=ultrafine fchk
 ----------------------------------------------------------------------

 ---------------------------------------------
 BODIPY-phenyl at around S0 minimum in toluene
 ---------------------------------------------
 Symbolic Z-matrix:
 Charge =  0 Multiplicity = 1

 SCF Done:  E(RM062X) =  -912.187803322     A.U. after   13 cycles
 SCF Done:  E(RM062X) =  -912.188709652     A.U. after   11 cycles
 SCF Done:  E(RM062X) =  -912.188726509     A.U. after   12 cycles
 SCF Done:  E(RM062X) =  -912.188728305     A.U. after   10 cycles
 SCF Done:  E(RM062X) =  -912.188734985     A.U. after   10 cycles
 SCF Done:  E(RM062X) =  -912.188736580     A.U. after   10 cycles
 SCF Done:  E(RM062X) =  -912.188737118     A.U. after    8 cycles
 SCF Done:  E(RM062X) =  -912.188737185     A.U. after    8 cycles
 SCF Done:  E(RM062X) =  -912.188737187     A.U. after    6 cycles
 SCF Done:  E(RM062X) =  -912.188737187     A.U. after    3 cycles
 Optimization completed.
    -- Stationary point found.
 Normal termination of Gaussian 09 at Fri Sep 28 10:57:49 2018.

 -------------------------------------------------------------------
 #P Geom=AllCheck Guess=TCheck SCRF=Check GenChk RM062X/CC-pVDZ Freq
 -------------------------------------------------------------------

 Structure from the checkpoint file:  "bodipy.chk"
 ---------------------------------------------
 BODIPY-phenyl at around S0 minimum in toluene
 ---------------------------------------------
 Charge =  0 Multiplicity = 1

                          Input orientation:
 ---------------------------------------------------------------------
 Center     Atomic      Atomic             Coordinates (Angstroms)
 Number     Number       Type             X           Y           Z
 ---------------------------------------------------------------------
      1          5           0       -0.004686   -0.107152    0.005226
      2          7           0        0.003548   -0.034800    1.560532
      3          6           0        1.091421    0.033991    2.332896
      4          1           0        2.083673    0.047162    1.887420
      5          6           0        0.720322    0.091400    3.692526
      6          1           0        1.402293    0.160633    4.533920
      7          6           0       -0.667171    0.061134    3.726743
      8          1           0       -1.310438    0.116342    4.600311
      9          6           0       -1.114442   -0.025116    2.382722
     10          6           0       -2.410750   -0.013491    1.843035
     11          7           0       -1.499087    0.044745   -0.408802
     12          6           0       -1.956852    0.070138   -1.663643
     13          1           0       -1.264713    0.083072   -2.502719
     14          6           0       -3.367211    0.060949   -1.668014
     15          1           0       -3.999396    0.076583   -2.550027
     16          6           0       -3.767823    0.019114   -0.339442
     17          1           0       -4.782894   -0.017180    0.045352
     18          6           0       -2.589001    0.018861    0.450605
     19          9           0        0.756717    0.926383   -0.527040
     20          9           0        0.477796   -1.341339   -0.421102
     21          6           0       -3.583787   -0.018728    2.744297
     22          6           0       -3.704225   -1.000408    3.738689
     23          1           0       -2.937387   -1.771143    3.827681
     24          6           0       -4.810726   -1.007863    4.584417
     25          1           0       -4.902855   -1.783062    5.345534
     26          6           0       -5.797590   -0.030121    4.456265
     27          6           0       -5.678943    0.953982    3.474528
     28          1           0       -6.442924    1.725709    3.377094
     29          6           0       -4.581809    0.958273    2.616723
     30          1           0       -4.478169    1.736484    1.859444
     31          1           0       -6.660297   -0.034554    5.123247
 ---------------------------------------------------------------------

 SCF Done:  E(RM062X) =  -912.188737187     A.U. after    1 cycles

 Alpha  occ. eigenvalues --  -25.20501 -25.20233 -14.79996 -14.79980 -10.62104
 Alpha  occ. eigenvalues --  -10.60333 -10.60331 -10.59679 -10.59664 -10.58702
 Alpha  occ. eigenvalues --  -10.57480 -10.57468 -10.57133 -10.57073 -10.57058
 Alpha  occ. eigenvalues --  -10.57003 -10.56983 -10.55720 -10.55706  -7.12986
 Alpha  occ. eigenvalues --   -1.30970  -1.27650  -1.11432  -1.09463  -0.98867
 Alpha  occ. eigenvalues --   -0.93367  -0.89682  -0.88259  -0.85998  -0.85288
 Alpha  occ. eigenvalues --   -0.82795  -0.76483  -0.70732  -0.70102  -0.69735
 Alpha  occ. eigenvalues --   -0.66742  -0.66422  -0.66092  -0.62325  -0.60985
 Alpha  occ. eigenvalues --   -0.59343  -0.57136  -0.56876  -0.54150  -0.53896
 Alpha  occ. eigenvalues --   -0.52789  -0.52251  -0.51316  -0.50443  -0.50279
 Alpha  occ. eigenvalues --   -0.49874  -0.49673  -0.47909  -0.46852  -0.46728
 Alpha  occ. eigenvalues --   -0.45919  -0.45426  -0.44726  -0.44550  -0.44488
 Alpha  occ. eigenvalues --   -0.41830  -0.41804  -0.41407  -0.37026  -0.32731
 Alpha  occ. eigenvalues --   -0.32545  -0.31848  -0.31480  -0.26603
 Alpha virt. eigenvalues --   -0.08674   0.00935   0.00999   0.06354   0.07870
 Alpha virt. eigenvalues --    0.09259   0.10398   0.12322   0.12409   0.13676
 Alpha virt. eigenvalues --    0.14221   0.14454   0.15346   0.15755   0.16621

 Mulliken charges:
               1
     1  B    0.183596
     2  N   -0.176695
     3  C    0.103314
     4  H    0.056188
     5  C   -0.031028
     6  H    0.017795
     7  C   -0.025464
     8  H    0.019587
     9  C    0.099717
    10  C    0.105220
    11  N   -0.178147
    12  C    0.103933
    13  H    0.056309
    14  C   -0.030314
    15  H    0.017792
    16  C   -0.027993
    17  H    0.020249
    18  C    0.103572
    19  F   -0.228372
    20  F   -0.224241
    21  C   -0.098638
    22  C    0.007075
    23  H    0.017615
    24  C    0.007948
    25  H    0.022685
    26  C    0.003008
    27  C    0.007755
    28  H    0.022536
    29  C    0.005760
    30  H    0.017708
    31  H    0.021532
 Sum of Mulliken charges =   0.00000

 Dipole moment (field-independent basis, Debye):
    X=             -5.0193    Y=              0.5268    Z=              3.8557  Tot=              6.3512
 Quadrupole moment (field-independent basis, Debye-Ang):
   XX=            -83.6622   YY=           -117.2971   ZZ=            -88.1378
   XY=             -2.4158   XZ=             -8.6206   YZ=             -3.2181

  Exact polarizability: 305.458 -12.572 117.584  28.315 -18.170 321.727
 Approx polarizability: 316.128 -15.682 147.425  31.635 -22.503 334.020

                      1                      2                      3
                      A                      A                      A
 Frequencies --     15.3673                68.8503                73.8154
 Red. masses --      9.3179                 3.9795                 4.9472
 Frc consts  --      0.0013                 0.0111                 0.0159
 IR Inten    --      3.3484                 0.5136                 0.7854

                      4                      5                      6
                      A                      A                      A
 Frequencies --     93.4893               119.0274               133.1024
 Red. masses --      4.5136                 5.7763                 7.6409
 Frc consts  --      0.0232                 0.0482                 0.0798
 IR Inten    --      1.0465                 0.7995                 0.0404

                      7                      8                      9
                      A                      A                      A
 Frequencies --    178.2131               222.8533               242.7899
 Red. masses --      4.4752                 6.4117                 6.5452
 Frc consts  --      0.0837                 0.1876                 0.2273
 IR Inten    --      0.3243                 1.0030                 3.8417

                     10                     11                     12
                      A                      A                      A
 Frequencies --    254.4112               269.1612               293.0068
 Red. masses --      4.6942                 6.7381                 4.9959
 Frc consts  --      0.1790                 0.2876                 0.2527
 IR Inten    --      1.9604                 4.3524                 0.7368

                     13                     14                     15
                      A                      A                      A
 Frequencies --    329.4011               392.0580               417.3153
 Red. masses --      8.4260                 7.2790                 3.0029
 Frc consts  --      0.5387                 0.6592                 0.3081
 IR Inten    --      0.9680                 8.1637                 2.3556

                     16                     17                     18
                      A                      A                      A
 Frequencies --    420.9941               440.0576               449.3951
 Red. masses --      6.4046                 7.2905                 8.5509
 Frc consts  --      0.6688                 0.8318                 1.0175
 IR Inten    --     49.5911                 0.4798                 2.5668

                     19                     20                     21
                      A                      A                      A
 Frequencies --    503.3591               597.3809               604.4242
 Red. masses --      3.9926                 3.3361                 7.7866
 Frc consts  --      0.5960                 0.7014                 1.6760
 IR Inten    --     12.0590                 6.7341                 6.0045

                     22                     23                     24
                      A                      A                      A
 Frequencies --    610.7704               622.9103               652.6469
 Red. masses --      3.0676                 5.7094                 5.0011
 Frc consts  --      0.6742                 1.3052                 1.2551
 IR Inten    --      0.5562                 3.3768                29.8194

                     25                     26                     27
                      A                      A                      A
 Frequencies --    674.7013               687.8250               717.3249
 Red. masses --      6.5683                 4.6962                 2.4275
 Frc consts  --      1.7617                 1.3090                 0.7359
 IR Inten    --     22.2014                 0.0014                 8.9717

                     28                     29                     30
                      A                      A                      A
 Frequencies --    737.3306               765.2024               787.1141
 Red. masses --      2.3059                 3.0815                 1.2751
 Frc consts  --      0.7386                 1.0631                 0.4654
 IR Inten    --    124.8622                41.8233                 0.2478

                     31                     32                     33
                      A                      A                      A
 Frequencies --    791.0889               803.9671               872.1310
 Red. masses --      1.7618                 2.1881                 6.7225
 Frc consts  --      0.6496                 0.8333                 3.0126
 IR Inten    --     30.7999                51.6767                 0.0280

                     34                     35                     36
                      A                      A                      A
 Frequencies --    879.5641               889.2834               900.7443
 Red. masses --      1.2495                 5.3787                 1.3908
 Frc consts  --      0.5695                 2.5061                 0.6648
 IR Inten    --      7.0524                 8.6345                 0.2941

                     37                     38                     39
                      A                      A                      A
 Frequencies --    902.6125               932.1832               940.5262
 Red. masses --      1.4272                 4.4020                 1.4103
 Frc consts  --      0.6851                 2.2537                 0.7350
 IR Inten    --      3.5260                48.0305                 2.7558

                     40                     41                     42
                      A                      A                      A
 Frequencies --    941.6304               956.4495               973.6998
 Red. masses --      1.4036                 1.6402                 1.8365
 Frc consts  --      0.7333                 0.8840                 1.0259
 IR Inten    --      2.0168                 1.2680                16.9436

                     43                     44                     45
                      A                      A                      A
 Frequencies --   1009.2155              1011.3483              1021.1690
 Red. masses --      3.4688                 1.4317                 3.5357
 Frc consts  --      2.0816                 0.8628                 2.1723
 IR Inten    --      7.6081                12.3523                51.3090

                     46                     47                     48
                      A                      A                      A
 Frequencies --   1032.1521              1034.7750              1053.4903
 Red. masses --      1.3223                 1.3695                 1.6283
 Frc consts  --      0.8300                 0.8640                 1.0647
 IR Inten    --      1.3310                 7.4350               171.3890

                     49                     50                     51
                      A                      A                      A
 Frequencies --   1062.7076              1092.9498              1097.6754
 Red. masses --      1.7931                 1.8055                 1.7017
 Frc consts  --      1.1931                 1.2707                 1.2081
 IR Inten    --      4.7702               579.5360               126.9826

                     52                     53                     54
                      A                      A                      A
 Frequencies --   1108.2783              1149.3293              1162.8101
 Red. masses --      1.4697                 2.9639                 1.0937
 Frc consts  --      1.0636                 2.3068                 0.8713
 IR Inten    --     24.9668               670.2417                 0.6683

                     55                     56                     57
                      A                      A                      A
 Frequencies --   1184.6468              1188.2672              1198.1100
 Red. masses --      2.3446                 1.6952                 6.7140
 Frc consts  --      1.9386                 1.4103                 5.6784
 IR Inten    --    116.8356               109.9969               218.9876

                     58                     59                     60
                      A                      A                      A
 Frequencies --   1233.8059              1245.5414              1299.7688
 Red. masses --      1.3813                 2.0612                 4.7237
 Frc consts  --      1.2389                 1.8841                 4.7018
 IR Inten    --     39.3239               130.2309                80.8538

                     61                     62                     63
                      A                      A                      A
 Frequencies --   1317.8590              1318.9201              1349.0722
 Red. masses --      2.4775                 2.2862                 3.9650
 Frc consts  --      2.5351                 2.3431                 4.2518
 IR Inten    --    612.8261               337.8674                 2.5222

                     64                     65                     66
                      A                      A                      A
 Frequencies --   1406.1785              1421.1635              1434.1862
 Red. masses --      4.8465                 5.3932                 3.4356
 Frc consts  --      5.6462                 6.4178                 4.1635
 IR Inten    --     12.3844                 0.6117               450.1255

                     67                     68                     69
                      A                      A                      A
 Frequencies --   1455.5315              1479.7166              1483.4764
 Red. masses --      4.4068                 2.5529                 6.2933
 Frc consts  --      5.5006                 3.2934                 8.1600
 IR Inten    --    235.5430                17.2719               124.9749

                     70                     71                     72
                      A                      A                      A
 Frequencies --   1534.1378              1551.9195              1553.3446
 Red. masses --      2.9841                 6.3368                 5.0334
 Frc consts  --      4.1380                 8.9920                 7.1556
 IR Inten    --      6.3455                93.6559                47.0577

                     73                     74                     75
                      A                      A                      A
 Frequencies --   1618.6232              1626.1756              1661.3181
 Red. masses --      6.6599                 8.2209                 6.7079
 Frc consts  --     10.2804                12.8087                10.9079
 IR Inten    --     13.1448              1168.0451                99.4209

                     76                     77                     78
                      A                      A                      A
 Frequencies --   1684.9335              3210.4196              3216.3228
 Red. masses --      6.5497                 1.0859                 1.0890
 Frc consts  --     10.9556                 6.5942                 6.6376
 IR Inten    --      9.5365                 0.4208                 0.7872

                     79                     80                     81
                      A                      A                      A
 Frequencies --   3222.4751              3230.0646              3237.3218
 Red. masses --      1.0930                 1.0970                 1.1006
 Frc consts  --      6.6872                 6.7432                 6.7958
 IR Inten    --      3.9332                 8.0682                 9.9117

                     82                     83                     84
                      A                      A                      A
 Frequencies --   3268.3823              3270.0261              3280.1201
 Red. masses --      1.0944                 1.0938                 1.0953
 Frc consts  --      6.8881                 6.8909                 6.9433
 IR Inten    --      2.9478                 2.5678                 0.0717

                     85                     86                     87
                      A                      A                      A
 Frequencies --   3281.5642              3297.5883              3298.1068
 Red. masses --      1.0955                 1.1071                 1.1066
 Frc consts  --      6.9505                 7.0930                 7.0922
 IR Inten    --      0.0921                 0.1396                 0.1902

 - Thermochemistry -
 -------------------
 Temperature   298.150 Kelvin.  Pressure   1.00000 Atm.
 Atom     1 has atomic number  5 and mass  11.00931

 Molecular mass:   268.09834 amu.
 Principal axes and moments of inertia in atomic units:
                           1         2         3
     Eigenvalues --  3111.019606387.466218735.49407
           X            0.79214   0.60879   0.04345
           Y           -0.00757  -0.06138   0.99809
           Z           -0.61029   0.79095   0.04401
 This molecule is an asymmetric top.
 Rotational symmetry number  1.
 Warning -- assumption of classical behavior for rotation
           may cause significant error
 Rotational temperatures (Kelvin)      0.02784     0.01356     0.00992
 Rotational constants (GHZ):           0.58011     0.28254     0.20660
 Zero-point vibrational energy     616394.8 (Joules/Mol)
                                  147.32190 (Kcal/Mol)
 Warning -- explicit consideration of  22 degrees of freedom as
           vibrations may cause significant error
 Vibrational temperatures:     22.11    99.06   106.20   134.51   171.25
          (Kelvin)            191.50   256.41   320.64   349.32   366.04
                              387.26   421.57   473.93   564.08   600.42
                              605.72   633.14   646.58   724.22   859.50
                              869.63   878.76   896.23   939.01   970.74
                              989.63  1032.07  1060.85  1100.95  1132.48
                             1138.20  1156.73  1254.80  1265.50  1279.48
                             1295.97  1298.66  1341.20  1353.21  1354.79
                             1376.12  1400.94  1452.03  1455.10  1469.23
                             1485.03  1488.81  1515.74  1529.00  1572.51
                             1579.31  1594.56  1653.63  1673.02  1704.44
                             1709.65  1723.81  1775.17  1792.05  1870.08
                             1896.10  1897.63  1941.01  2023.17  2044.73
                             2063.47  2094.18  2128.98  2134.39  2207.28
                             2232.86  2234.91  2328.83  2339.70  2390.26
                             2424.24  4619.07  4627.57  4636.42  4647.34
                             4657.78  4702.47  4704.83  4719.36  4721.43
                             4744.49  4745.23

 Zero-point correction=                           0.234772 (Hartree/Particle)
 Thermal correction to Energy=                    0.249806
 Thermal correction to Enthalpy=                  0.250750
 Thermal correction to Gibbs Free Energy=         0.191304
 Sum of electronic and zero-point Energies=           -911.953965
 Sum of electronic and thermal Energies=              -911.938931
 Sum of electronic and thermal Enthalpies=            -911.937987
 Sum of electronic and thermal Free Energies=         -911.997433

                     E (Thermal)             CV                S
                      KCal/Mol        Cal/Mol-Kelvin    Cal/Mol-Kelvin
 Total                  156.756             60.156            125.115
 Electronic               0.000              0.000              0.000
 Translational            0.889              2.981             42.658
 Rotational               0.889              2.981             33.517
 Vibrational            154.978             54.195             48.940
 Vibration     1          0.593              1.986              7.158
 Vibration     2          0.598              1.969              4.186
 Vibration     3          0.599              1.966              4.049
 Vibration     4          0.603              1.954              3.586
 Vibration     5          0.609              1.933              3.116
 Vibration     6          0.613              1.920              2.901
 Vibration     7          0.629              1.869              2.347
 Vibration     8          0.649              1.806              1.936
 Vibration     9          0.659              1.775              1.782
 Vibration    10          0.665              1.755              1.700
 Vibration    11          0.674              1.730              1.602
 Vibration    12          0.688              1.687              1.457
 Vibration    13          0.712              1.617              1.263
 Vibration    14          0.759              1.487              0.992
 Vibration    15          0.780              1.433              0.901
 Vibration    16          0.783              1.425              0.889
 Vibration    17          0.800              1.383              0.826
 Vibration    18          0.808              1.362              0.798
 Vibration    19          0.859              1.243              0.650
 Vibration    20          0.955              1.037              0.454
 Vibration    21          0.963              1.022              0.442
 Vibration    22          0.970              1.009              0.432

 Normal termination of Gaussian 09 at Fri Sep 28 11:09:55 2018.
