 Gaussian 16, Revision C.01,
 Gaussian 16:  ES64L-G16RevC.01  3-Jul-2019

 ----------------------------------------------------------------------
 #p m062x cc-pvdz scrf=(cpcm,solvent=Acetone) opt=(tight,calcfc) freq n
 osymm int=ultrafine fchk
 ----------------------------------------------------------------------

 --------------------------------------
 BDP-PP-phenyl, optimized S0 in toluene
 --------------------------------------
 Symbolic Z-matrix:
 Charge =  0 Multiplicity = 1

 SCF Done:  E(RM062X) =  -1374.17488127     A.U. after   12 cycles
 SCF Done:  E(RM062X) =  -1374.17495010     A.U. after   10 cycles
 SCF Done:  E(RM062X) =  -1374.17495016     A.U. after    7 cycles
 SCF Done:  E(RM062X) =  -1374.17495016     A.U. after    5 cycles
 SCF Done:  E(RM062X) =  -1374.17495016     A.U. after    3 cycles
 SCF Done:  E(RM062X) =  -1374.17495016     A.U. after    4 cycles
 SCF Done:  E(RM062X) =  -1374.17495016     A.U. after    3 cycles
 SCF Done:  E(RM062X) =  -1374.17495016     A.U. after    4 cycles
 SCF Done:  E(RM062X) =  -1374.17495016     A.U. after    4 cycles
 SCF Done:  E(RM062X) =  -1374.17495016     A.U. after    3 cycles
 SCF Done:  E(RM062X) =  -1374.17495016     A.U. after    4 cycles
 Optimization completed.
    -- Stationary point found.
 Normal termination of Gaussian 16 at Tue Feb  1 13:02:56 2022.

 -------------------------------------------------------------------
 #P Geom=AllCheck Guess=TCheck SCRF=Check GenChk RM062X/CC-pVDZ Freq
 -------------------------------------------------------------------

 Structure from the checkpoint file:  "bodipy.chk"
 --------------------------------------
 BDP-PP-phenyl, optimized S0 in toluene
 --------------------------------------
 Charge =  0 Multiplicity = 1

                          Input orientation:
 ---------------------------------------------------------------------
 Center     Atomic      Atomic             Coordinates (Angstroms)
 Number     Number       Type             X           Y           Z
 ---------------------------------------------------------------------
      1          7           0       12.409404   -9.438397   -1.137674
      2          6           0       13.181836   -9.803963   -2.162305
      3          6           0       14.061359   -8.752177   -2.521454
      4          6           0       13.772552   -7.700859   -1.650171
      5          6           0       12.747282   -8.138934   -0.779147
      6          6           0       11.499520   -5.116344    0.783224
      7          6           0       11.862722   -3.820472    1.141292
      8          6           0       13.199050   -3.513248    1.400106
      9          6           0       14.175385   -4.504679    1.294007
     10          6           0       13.820915   -5.799076    0.922104
     11          6           0       12.478148   -6.115059    0.665967
     12          6           0       12.092919   -7.489042    0.281451
     13          6           0       11.076590   -8.154646    0.988189
     14          6           0       10.356747   -7.781171    2.147606
     15          6           0        9.524176   -8.848495    2.486810
     16          6           0        9.770515   -9.853735    1.518343
     17          7           0       10.684121   -9.440326    0.638161
     18          9           0       11.615697  -11.518968   -0.177346
     19          5           0       11.206727  -10.250931   -0.579950
     20          9           0       10.212975  -10.351877   -1.554309
     21          1           0       13.064332  -10.784402   -2.619618
     22          1           0       14.243628   -6.722297   -1.622025
     23          1           0       10.457377   -5.355225    0.567057
     24          1           0       11.097818   -3.047322    1.216437
     25          1           0       13.480211   -2.499262    1.686156
     26          1           0       15.219111   -4.271119    1.505059
     27          1           0       14.580669   -6.578957    0.856653
     28          1           0       10.479060   -6.845086    2.685633
     29          1           0        9.319907  -10.839782    1.424623
     30          6           0       15.053470   -8.786715   -3.608407
     31          6           0       15.546431   -7.596191   -4.163288
     32          6           0       15.525411  -10.007992   -4.112534
     33          6           0       16.485080   -7.626534   -5.191719
     34          6           0       16.460134  -10.037122   -5.145286
     35          6           0       16.945205   -8.847075   -5.688728
     36          1           0       15.179059   -6.636218   -3.796978
     37          1           0       15.170496  -10.946660   -3.683852
     38          1           0       16.854399   -6.690392   -5.612135
     39          1           0       16.816129  -10.996449   -5.522731
     40          1           0       17.678026   -8.870331   -6.495851
     41          6           0        8.581946   -8.942211    3.613788
     42          6           0        8.084526   -7.781649    4.225193
     43          6           0        8.163297  -10.189772    4.100356
     44          6           0        7.196956   -7.866599    5.295231
     45          6           0        7.270646  -10.273384    5.166754
     46          6           0        6.784631   -9.112772    5.769863
     47          1           0        8.383423   -6.802232    3.848038
     48          1           0        8.551384  -11.105990    3.652302
     49          1           0        6.819248   -6.953239    5.756308
     50          1           0        6.958263  -11.252237    5.532429
     51          1           0        6.087261   -9.178863    6.605523
 ---------------------------------------------------------------------

 SCF Done:  E(RM062X) =  -1374.17495016     A.U. after    1 cycles

 Alpha  occ. eigenvalues --  -25.21745 -25.21455 -14.80848 -14.80824 -10.62468
 Alpha  occ. eigenvalues --  -10.61052 -10.61049 -10.60283 -10.60263 -10.58625
 Alpha  occ. eigenvalues --  -10.57347 -10.57327 -10.57301 -10.57300 -10.57294
 Alpha  occ. eigenvalues --  -10.57292 -10.57020 -10.56999 -10.56842 -10.56696
 Alpha  occ. eigenvalues --  -10.56678 -10.55983 -10.55981 -10.55930 -10.55930
 Alpha  occ. eigenvalues --  -10.55857 -10.55856 -10.55840 -10.55840 -10.55700
 Alpha  occ. eigenvalues --  -10.55698  -7.14027  -1.32151  -1.28820  -1.12223
 Alpha  occ. eigenvalues --   -1.10279  -0.98822  -0.97149  -0.97027  -0.93602
 Alpha  occ. eigenvalues --   -0.91377  -0.90314  -0.86292  -0.85441  -0.85424
 Alpha  occ. eigenvalues --   -0.84667  -0.84608  -0.84513  -0.81607  -0.77014
 Alpha  occ. eigenvalues --   -0.72573  -0.70818  -0.70738  -0.70169  -0.69943
 Alpha  occ. eigenvalues --   -0.68659  -0.67541  -0.66502  -0.65924  -0.65341
 Alpha  occ. eigenvalues --   -0.62358  -0.60972  -0.60641  -0.58454  -0.58060
 Alpha  occ. eigenvalues --   -0.57478  -0.57328  -0.54839  -0.53992  -0.53354
 Alpha  occ. eigenvalues --   -0.53130  -0.52891  -0.52374  -0.52277  -0.51906
 Alpha  occ. eigenvalues --   -0.51406  -0.51163  -0.50389  -0.49767  -0.49415
 Alpha  occ. eigenvalues --   -0.48761  -0.48737  -0.48177  -0.47350  -0.47234
 Alpha  occ. eigenvalues --   -0.47068  -0.46466  -0.45894  -0.45520  -0.45074
 Alpha  occ. eigenvalues --   -0.44565  -0.44560  -0.42444  -0.41705  -0.41463
 Alpha  occ. eigenvalues --   -0.41015  -0.40638  -0.40084  -0.39952  -0.37776
 Alpha  occ. eigenvalues --   -0.35463  -0.35239  -0.32270  -0.31591  -0.31351
 Alpha  occ. eigenvalues --   -0.31302  -0.30112  -0.28620  -0.25629
 Alpha virt. eigenvalues --   -0.09342   0.00181   0.00677   0.01093   0.01275
 Alpha virt. eigenvalues --    0.02041   0.02221   0.05857   0.09606   0.09878
 Alpha virt. eigenvalues --    0.10416   0.10584   0.11563   0.12476   0.12639

 Mulliken charges:
               1
     1  N   -0.182233
     2  C    0.107602
     3  C   -0.017505
     4  C   -0.069984
     5  C    0.115434
     6  C    0.005650
     7  C    0.006106
     8  C    0.001819
     9  C    0.005800
    10  C    0.004867
    11  C   -0.103887
    12  C    0.115197
    13  C    0.109132
    14  C   -0.064457
    15  C   -0.021048
    16  C    0.107876
    17  N   -0.180476
    18  F   -0.234380
    19  B    0.183735
    20  F   -0.231501
    21  H    0.062468
    22  H    0.028910
    23  H    0.021731
    24  H    0.028863
    25  H    0.028208
    26  H    0.028925
    27  H    0.023032
    28  H    0.029487
    29  H    0.061939
    30  C    0.003625
    31  C   -0.032037
    32  C   -0.036155
    33  C    0.004947
    34  C    0.004252
    35  C   -0.008283
    36  H    0.011082
    37  H    0.010132
    38  H    0.019234
    39  H    0.019541
    40  H    0.017813
    41  C    0.003931
    42  C   -0.030584
    43  C   -0.035362
    44  C    0.004321
    45  C    0.003872
    46  C   -0.008628
    47  H    0.010195
    48  H    0.010036
    49  H    0.019298
    50  H    0.019565
    51  H    0.017897
 Sum of Mulliken charges =  -0.00000

 Dipole moment (field-independent basis, Debye):
    X=              2.3163    Y=              6.2619    Z=              2.2618  Tot=              7.0493
 Quadrupole moment (field-independent basis, Debye-Ang):
   XX=           -112.6130   YY=           -264.9532   ZZ=           -170.2255
   XY=             57.0683   XZ=              4.7758   YZ=            -14.6099

  Exact polarizability:     528.909      44.384     483.410    -329.390      47.563     552.147
 Approx polarizability:     439.424      32.434     467.995    -207.003      40.480     436.060

                      1                      2                      3
                      A                      A                      A
 Frequencies --     12.3877                30.3662                32.5235
 Red. masses --      8.5156                 3.6706                 3.7620
 Frc consts  --      0.0008                 0.0020                 0.0023
 IR Inten    --      1.6129                 0.1115                 0.1774

                      4                      5                      6
                      A                      A                      A
 Frequencies --     41.3036                48.6754                50.7280
 Red. masses --      7.5762                 5.7813                 5.4791
 Frc consts  --      0.0076                 0.0081                 0.0083
 IR Inten    --      0.2796                 0.1542                 0.2512

                      7                      8                      9
                      A                      A                      A
 Frequencies --     59.6493                76.4570                93.7208
 Red. masses --      5.2805                 4.4782                 4.6261
 Frc consts  --      0.0111                 0.0154                 0.0239
 IR Inten    --      0.0462                 1.1857                 0.9661

                     10                     11                     12
                      A                      A                      A
 Frequencies --    105.0937               132.6932               136.9939
 Red. masses --      5.3067                 6.0597                 7.1560
 Frc consts  --      0.0345                 0.0629                 0.0791
 IR Inten    --      0.5780                 0.8797                 0.0295

                     13                     14                     15
                      A                      A                      A
 Frequencies --    178.5611               187.4772               205.9543
 Red. masses --      4.7491                 6.0216                 5.5826
 Frc consts  --      0.0892                 0.1247                 0.1395
 IR Inten    --      1.0471                 0.3763                 0.0367

                     16                     17                     18
                      A                      A                      A
 Frequencies --    212.7754               237.9237               249.6376
 Red. masses --      7.8697                 4.9287                 8.5658
 Frc consts  --      0.2099                 0.1644                 0.3145
 IR Inten    --      8.1664                 0.3730                 2.6980

                     19                     20                     21
                      A                      A                      A
 Frequencies --    266.0506               270.8427               304.5895
 Red. masses --      5.1702                 5.5177                 5.3449
 Frc consts  --      0.2156                 0.2385                 0.2922
 IR Inten    --      0.6000                 9.4806                 2.8972

                     22                     23                     24
                      A                      A                      A
 Frequencies --    363.1311               368.3066               387.8776
 Red. masses --      7.3023                 6.1510                 8.4606
 Frc consts  --      0.5673                 0.4916                 0.7500
 IR Inten    --     15.7644                 0.0413                13.2123

                     25                     26                     27
                      A                      A                      A
 Frequencies --    413.5783               414.8175               417.5022
 Red. masses --      2.8825                 2.8948                 3.2006
 Frc consts  --      0.2905                 0.2935                 0.3287
 IR Inten    --      0.6144                 0.0035                12.4326

                     28                     29                     30
                      A                      A                      A
 Frequencies --    420.3728               441.4848               468.2770
 Red. masses --      6.0866                 7.0053                 4.6683
 Frc consts  --      0.6337                 0.8045                 0.6031
 IR Inten    --     55.4865                11.5440               111.9017

                     31                     32                     33
                      A                      A                      A
 Frequencies --    483.9097               506.7656               514.9095
 Red. masses --      5.2551                 4.2512                 6.0152
 Frc consts  --      0.7250                 0.6432                 0.9396
 IR Inten    --      6.5091                26.7539                 9.7885

                     34                     35                     36
                      A                      A                      A
 Frequencies --    525.3799               527.8552               610.3366
 Red. masses --      3.3871                 3.7855                 9.0602
 Frc consts  --      0.5508                 0.6215                 1.9885
 IR Inten    --     12.3508                16.7729                 4.8753

                     37                     38                     39
                      A                      A                      A
 Frequencies --    619.4809               623.9082               623.9254
 Red. masses --      6.2944                 5.9471                 5.9024
 Frc consts  --      1.4232                 1.3640                 1.3538
 IR Inten    --      1.4026                 1.2673                 1.4891

                     40                     41                     42
                      A                      A                      A
 Frequencies --    639.4703               647.1085               654.6217
 Red. masses --      4.4820                 2.4714                 2.9938
 Frc consts  --      1.0798                 0.6097                 0.7559
 IR Inten    --      1.9679                 7.3890                36.9749

                     43                     44                     45
                      A                      A                      A
 Frequencies --    679.5918               681.3548               688.1125
 Red. masses --      6.2097                 6.4171                 5.3128
 Frc consts  --      1.6897                 1.7552                 1.4821
 IR Inten    --     31.5127                69.7705                 0.3638

                     46                     47                     48
                      A                      A                      A
 Frequencies --    710.5211               716.2823               716.4448
 Red. masses --      5.5164                 1.7908                 1.7934
 Frc consts  --      1.6408                 0.5413                 0.5424
 IR Inten    --      2.1974                 9.3652                90.1508

                     49                     50                     51
                      A                      A                      A
 Frequencies --    718.2620               740.5841               769.9784
 Red. masses --      2.3867                 2.3770                 5.5931
 Frc consts  --      0.7255                 0.7681                 1.9537
 IR Inten    --     13.8111               244.6368                86.8746

                     52                     53                     54
                      A                      A                      A
 Frequencies --    790.1810               791.4373               802.0559
 Red. masses --      1.8274                 1.8735                 2.4232
 Frc consts  --      0.6723                 0.6914                 0.9184
 IR Inten    --     22.3602                93.5323                 9.0717

                     55                     56                     57
                      A                      A                      A
 Frequencies --    871.0128               871.4009               877.6177
 Red. masses --      1.2767                 1.2679                 1.3677
 Frc consts  --      0.5707                 0.5673                 0.6206
 IR Inten    --      0.1154                 0.3281                 3.5247

                     58                     59                     60
                      A                      A                      A
 Frequencies --    882.0036               885.0817               896.6763
 Red. masses --      1.4858                 1.2817                 1.5928
 Frc consts  --      0.6810                 0.5916                 0.7546
 IR Inten    --     14.1276                 7.2126                11.4664

                     61                     62                     63
                      A                      A                      A
 Frequencies --    899.8916               926.4091               935.8363
 Red. masses --      1.5818                 6.5740                 6.3359
 Frc consts  --      0.7547                 3.3242                 3.2693
 IR Inten    --     32.1279                43.9856                69.2674

                     64                     65                     66
                      A                      A                      A
 Frequencies --    951.2702               951.5074               955.6657
 Red. masses --      1.5850                 1.4764                 5.5214
 Frc consts  --      0.8451                 0.7876                 2.9711
 IR Inten    --     11.3832                 0.3364                37.3044

                     67                     68                     69
                      A                      A                      A
 Frequencies --    963.5683               989.4489              1006.8093
 Red. masses --      1.5336                 2.6693                 1.4134
 Frc consts  --      0.8389                 1.5397                 0.8442
 IR Inten    --     10.2528                 1.1351                 0.9579

                     70                     71                     72
                      A                      A                      A
 Frequencies --   1007.1959              1012.0616              1012.8895
 Red. masses --      1.4025                 5.4380                 4.9458
 Frc consts  --      0.8382                 3.2817                 2.9896
 IR Inten    --      0.7410                18.3059                 3.8372

                     73                     74                     75
                      A                      A                      A
 Frequencies --   1012.9830              1016.0876              1025.0270
 Red. masses --      5.2570                 1.4059                 4.6429
 Frc consts  --      3.1783                 0.8552                 2.8741
 IR Inten    --      0.1680                17.9286               225.8993

                     76                     77                     78
                      A                      A                      A
 Frequencies --   1028.9333              1029.6007              1037.5612
 Red. masses --      1.3052                 1.3050                 1.3102
 Frc consts  --      0.8142                 0.8151                 0.8311
 IR Inten    --      0.4341                 0.4711                 0.2361

                     79                     80                     81
                      A                      A                      A
 Frequencies --   1059.5650              1060.5279              1061.5430
 Red. masses --      2.2823                 2.1183                 2.1371
 Frc consts  --      1.5097                 1.4037                 1.4189
 IR Inten    --      4.8863                12.9743                 7.5915

                     82                     83                     84
                      A                      A                      A
 Frequencies --   1080.0805              1086.2033              1100.5135
 Red. masses --      1.8173                 1.7945                 1.6018
 Frc consts  --      1.2491                 1.2474                 1.1430
 IR Inten    --    455.8828                73.8834               692.1627

                     85                     86                     87
                      A                      A                      A
 Frequencies --   1105.3116              1107.6299              1133.8596
 Red. masses --      1.4711                 1.4483                 2.7174
 Frc consts  --      1.0589                 1.0469                 2.0584
 IR Inten    --     20.1936                 7.3474              2719.0977

                     88                     89                     90
                      A                      A                      A
 Frequencies --   1157.7640              1158.5882              1161.3991
 Red. masses --      1.0863                 1.0891                 1.0914
 Frc consts  --      0.8579                 0.8613                 0.8674
 IR Inten    --      4.3034                10.8103                 1.4423

                     91                     92                     93
                      A                      A                      A
 Frequencies --   1162.8634              1177.2623              1185.8116
 Red. masses --      6.1549                 4.4394                 1.1188
 Frc consts  --      4.9037                 3.6251                 0.9269
 IR Inten    --    318.2126               373.6183                10.5623

                     94                     95                     96
                      A                      A                      A
 Frequencies --   1189.2728              1190.7574              1192.9357
 Red. masses --      1.3336                 1.5275                 1.2842
 Frc consts  --      1.1114                 1.2761                 1.0768
 IR Inten    --      3.8812                10.5206                 4.3966

                     97                     98                     99
                      A                      A                      A
 Frequencies --   1198.7021              1238.1414              1273.8561
 Red. masses --      1.5812                 2.4377                 2.4818
 Frc consts  --      1.3386                 2.2017                 2.3728
 IR Inten    --      5.7973                21.9243              1209.0576

                    100                    101                    102
                      A                      A                      A
 Frequencies --   1297.7642              1312.8558              1318.7530
 Red. masses --      2.3908                 1.8633                 1.7001
 Frc consts  --      2.3724                 1.8922                 1.7421
 IR Inten    --    860.4245                 9.4753               102.3016

                    103                    104                    105
                      A                      A                      A
 Frequencies --   1333.2756              1340.2148              1348.4606
 Red. masses --      2.6750                 3.9044                 3.6485
 Frc consts  --      2.8017                 4.1319                 3.9088
 IR Inten    --    654.5818               119.5537                 2.1862

                    106                    107                    108
                      A                      A                      A
 Frequencies --   1349.2457              1351.5583              1417.1246
 Red. masses --      3.0363                 2.7616                 4.4453
 Frc consts  --      3.2567                 2.9722                 5.2598
 IR Inten    --     13.8308                22.5188               244.6762

                    109                    110                    111
                      A                      A                      A
 Frequencies --   1420.6166              1441.1551              1447.2601
 Red. masses --      4.6624                 5.7528                 4.5784
 Frc consts  --      5.5438                 7.0397                 5.6501
 IR Inten    --    322.7975                20.5950                 3.9278

                    112                    113                    114
                      A                      A                      A
 Frequencies --   1477.1756              1488.8345              1490.8893
 Red. masses --      2.5428                 2.7355                 2.8864
 Frc consts  --      3.2691                 3.5725                 3.7800
 IR Inten    --     40.3775               264.6817                29.6203

                    115                    116                    117
                      A                      A                      A
 Frequencies --   1498.2233              1529.0148              1531.7343
 Red. masses --      3.4805                 3.0225                 2.7413
 Frc consts  --      4.6031                 4.1634                 3.7894
 IR Inten    --     10.2986               234.7868                 5.1226

                    118                    119                    120
                      A                      A                      A
 Frequencies --   1545.1861              1570.0270              1593.4216
 Red. masses --      6.3178                 5.8170                 7.5807
 Frc consts  --      8.8874                 8.4482                11.3402
 IR Inten    --    170.9838                65.6253              1408.2519

                    121                    122                    123
                      A                      A                      A
 Frequencies --   1633.2491              1641.0023              1657.6193
 Red. masses --      6.4301                 6.3225                 6.5355
 Frc consts  --     10.1059                10.0313                10.5803
 IR Inten    --   1077.3343                 1.1560               129.1022

                    124                    125                    126
                      A                      A                      A
 Frequencies --   1661.3312              1661.9177              1681.8488
 Red. masses --      6.5651                 6.5565                 6.5162
 Frc consts  --     10.6759                10.6694                10.8598
 IR Inten    --     13.1550                15.2098                18.7083

                    127                    128                    129
                      A                      A                      A
 Frequencies --   1689.4163              1690.7502              3204.9530
 Red. masses --      6.5770                 6.5352                 1.0860
 Frc consts  --     11.0600                11.0070                 6.5727
 IR Inten    --      7.5267                10.1552                11.1472

                    130                    131                    132
                      A                      A                      A
 Frequencies --   3205.8878              3208.2183              3209.5017
 Red. masses --      1.0859                 1.0886                 1.0885
 Frc consts  --      6.5757                 6.6013                 6.6064
 IR Inten    --      9.4947                 0.6779                 0.7422

                    133                    134                    135
                      A                      A                      A
 Frequencies --   3213.4250              3217.8214              3218.1721
 Red. masses --      1.0863                 1.0920                 1.0920
 Frc consts  --      6.6087                 6.6616                 6.6633
 IR Inten    --      0.3795                 2.3785                 3.1436

                    136                    137                    138
                      A                      A                      A
 Frequencies --   3218.7372              3223.8768              3224.2340
 Red. masses --      1.0893                 1.0964                 1.0929
 Frc consts  --      6.6491                 6.7139                 6.6940
 IR Inten    --      0.2405                26.9558                 3.8510

                    139                    140                    141
                      A                      A                      A
 Frequencies --   3224.8756              3232.7170              3235.0491
 Red. masses --      1.0965                 1.0969                 1.1002
 Frc consts  --      6.7184                 6.7537                 6.7837
 IR Inten    --     28.0938                10.0052                40.6150

                    142                    143                    144
                      A                      A                      A
 Frequencies --   3235.0817              3239.6755              3264.9956
 Red. masses --      1.1002                 1.1005                 1.0981
 Frc consts  --      6.7844                 6.8052                 6.8967
 IR Inten    --      4.6636                11.4231                 4.0019

                    145                    146                    147
                      A                      A                      A
 Frequencies --   3265.2781              3276.3444              3280.5405
 Red. masses --      1.0983                 1.0983                 1.0981
 Frc consts  --      6.8992                 6.9460                 6.9625
 IR Inten    --      2.4416                 1.9432                 2.0530

 - Thermochemistry -
 -------------------
 Temperature   298.150 Kelvin.  Pressure   1.00000 Atm.
 Atom     1 has atomic number  7 and mass  14.00307

 Molecular mass:   420.16094 amu.
 Principal axes and moments of inertia in atomic units:
                           1         2         3
     Eigenvalues --  7362.44398********************
           X           -0.66925   0.24324   0.70210
           Y           -0.01265   0.94103  -0.33808
           Z            0.74293   0.23514   0.62670
 This molecule is an asymmetric top.
 Rotational symmetry number  1.
 Warning -- assumption of classical behavior for rotation
           may cause significant error
 Rotational temperatures (Kelvin)      0.01176     0.00340     0.00272
 Rotational constants (GHZ):           0.24513     0.07095     0.05671
 Zero-point vibrational energy    1042908.4 (Joules/Mol)
                                  249.26109 (Kcal/Mol)
 Warning -- explicit consideration of  37 degrees of freedom as
           vibrations may cause significant error
 Vibrational temperatures:     17.82    43.69    46.79    59.43    70.03
          (Kelvin)             72.99    85.82   110.00   134.84   151.21
                              190.92   197.10   256.91   269.74   296.32
                              306.14   342.32   359.17   382.79   389.68
                              438.24   522.46   529.91   558.07   595.05
                              596.83   600.69   604.82   635.20   673.75
                              696.24   729.12   740.84   755.90   759.47
                              878.14   891.29   897.66   897.69   920.06
                              931.04   941.85   977.78   980.32   990.04
                             1022.28  1030.57  1030.80  1033.42  1065.54
                             1107.83  1136.89  1138.70  1153.98  1253.19
                             1253.75  1262.70  1269.01  1273.44  1290.12
                             1294.74  1332.90  1346.46  1368.67  1369.01
                             1374.99  1386.36  1423.60  1448.57  1449.13
                             1456.13  1457.32  1457.46  1461.92  1474.79
                             1480.41  1481.37  1492.82  1524.48  1525.86
                             1527.32  1553.99  1562.80  1583.39  1590.30
                             1593.63  1631.37  1665.76  1666.95  1670.99
                             1673.10  1693.82  1706.12  1711.10  1713.23
                             1716.37  1724.66  1781.41  1832.79  1867.19
                             1888.91  1897.39  1918.29  1928.27  1940.13
                             1941.26  1944.59  2038.93  2043.95  2073.50
                             2082.28  2125.33  2142.10  2145.06  2155.61
                             2199.91  2203.82  2223.18  2258.92  2292.58
                             2349.88  2361.04  2384.94  2390.29  2391.13
                             2419.81  2430.69  2432.61  4611.21  4612.56
                             4615.91  4617.76  4623.40  4629.73  4630.23
                             4631.04  4638.44  4638.95  4639.88  4651.16
                             4654.51  4654.56  4661.17  4697.60  4698.01
                             4713.93  4719.97

 Zero-point correction=                           0.397223 (Hartree/Particle)
 Thermal correction to Energy=                    0.421913
 Thermal correction to Enthalpy=                  0.422857
 Thermal correction to Gibbs Free Energy=         0.339831
 Sum of electronic and zero-point Energies=          -1373.777727
 Sum of electronic and thermal Energies=             -1373.753037
 Sum of electronic and thermal Enthalpies=           -1373.752093
 Sum of electronic and thermal Free Energies=        -1373.835119

                     E (Thermal)             CV                S
                      KCal/Mol        Cal/Mol-Kelvin    Cal/Mol-Kelvin
 Total                  264.754             98.525            174.743
 Electronic               0.000              0.000              0.000
 Translational            0.889              2.981             43.997
 Rotational               0.889              2.981             37.031
 Vibrational            262.977             92.564             93.716
 Vibration     1          0.593              1.987              7.586
 Vibration     2          0.594              1.984              5.805
 Vibration     3          0.594              1.983              5.669
 Vibration     4          0.594              1.981              5.196
 Vibration     5          0.595              1.978              4.870
 Vibration     6          0.595              1.977              4.789
 Vibration     7          0.597              1.974              4.469
 Vibration     8          0.599              1.965              3.980
 Vibration     9          0.603              1.954              3.581
 Vibration    10          0.605              1.945              3.358
 Vibration    11          0.613              1.921              2.907
 Vibration    12          0.614              1.916              2.845
 Vibration    13          0.629              1.869              2.343
 Vibration    14          0.632              1.857              2.253
 Vibration    15          0.640              1.831              2.079
 Vibration    16          0.644              1.821              2.020
 Vibration    17          0.656              1.783              1.818
 Vibration    18          0.662              1.763              1.733
 Vibration    19          0.672              1.735              1.622
 Vibration    20          0.675              1.727              1.591
 Vibration    21          0.696              1.665              1.392
 Vibration    22          0.737              1.548              1.109
 Vibration    23          0.741              1.537              1.087
 Vibration    24          0.756              1.496              1.008
 Vibration    25          0.777              1.441              0.914
 Vibration    26          0.778              1.438              0.910
 Vibration    27          0.781              1.432              0.900
 Vibration    28          0.783              1.426              0.891
 Vibration    29          0.801              1.380              0.822
 Vibration    30          0.825              1.320              0.742
 Vibration    31          0.840              1.286              0.700
 Vibration    32          0.862              1.235              0.641
 Vibration    33          0.870              1.217              0.622
 Vibration    34          0.880              1.194              0.598
 Vibration    35          0.883              1.188              0.592
 Vibration    36          0.969              1.010              0.432
 Vibration    37          0.979              0.991              0.417

 Optimization completed.
    -- Stationary point found.
 Normal termination of Gaussian 16 at Tue Feb  1 13:38:12 2022.
