 Gaussian 16, Revision C.01,
 Gaussian 16:  ES64L-G16RevC.01  3-Jul-2019

 ----------------------------------------------------------------------
 #p m062x cc-pvdz scrf=(cpcm,solvent=TetraHydroFuran) opt=(tight,calcfc
 ) freq nosymm int=ultrafine fchk
 ----------------------------------------------------------------------

 --------------------------------------
 BDP-PP-phenyl, optimized S0 in toluene
 --------------------------------------
 Symbolic Z-matrix:
 Charge =  0 Multiplicity = 1

 SCF Done:  E(RM062X) =  -1374.17329859     A.U. after   12 cycles
 SCF Done:  E(RM062X) =  -1374.17333790     A.U. after   10 cycles
 SCF Done:  E(RM062X) =  -1374.17333792     A.U. after    6 cycles
 SCF Done:  E(RM062X) =  -1374.17333792     A.U. after    4 cycles
 SCF Done:  E(RM062X) =  -1374.17333792     A.U. after    3 cycles
 SCF Done:  E(RM062X) =  -1374.17333792     A.U. after    4 cycles
 SCF Done:  E(RM062X) =  -1374.17333792     A.U. after    3 cycles
 SCF Done:  E(RM062X) =  -1374.17333792     A.U. after    4 cycles
 SCF Done:  E(RM062X) =  -1374.17333792     A.U. after    4 cycles
 Optimization completed on the basis of negligible forces.
    -- Stationary point found.
 Normal termination of Gaussian 16 at Tue Feb  1 12:57:52 2022.

 -------------------------------------------------------------------
 #P Geom=AllCheck Guess=TCheck SCRF=Check GenChk RM062X/CC-pVDZ Freq
 -------------------------------------------------------------------

 Structure from the checkpoint file:  "bodipy.chk"
 --------------------------------------
 BDP-PP-phenyl, optimized S0 in toluene
 --------------------------------------
 Charge =  0 Multiplicity = 1

                          Input orientation:
 ---------------------------------------------------------------------
 Center     Atomic      Atomic             Coordinates (Angstroms)
 Number     Number       Type             X           Y           Z
 ---------------------------------------------------------------------
      1          7           0       12.406486   -9.436715   -1.140506
      2          6           0       13.178908   -9.802234   -2.164605
      3          6           0       14.060030   -8.751042   -2.522658
      4          6           0       13.771847   -7.700238   -1.650988
      5          6           0       12.745451   -8.138042   -0.780804
      6          6           0       11.501077   -5.115163    0.781026
      7          6           0       11.865310   -3.819885    1.140194
      8          6           0       13.201388   -3.514627    1.402184
      9          6           0       14.176342   -4.507520    1.298239
     10          6           0       13.820715   -5.801347    0.925438
     11          6           0       12.478261   -6.115351    0.666009
     12          6           0       12.091731   -7.488932    0.280355
     13          6           0       11.075260   -8.153883    0.987057
     14          6           0       10.356365   -7.780677    2.147409
     15          6           0        9.523577   -8.847590    2.486344
     16          6           0        9.768736   -9.852234    1.516557
     17          7           0       10.681696   -9.438847    0.636345
     18          9           0       11.610479  -11.517164   -0.182358
     19          5           0       11.202127  -10.249574   -0.583941
     20          9           0       10.208594  -10.345793   -1.557327
     21          1           0       13.060040  -10.782137   -2.622677
     22          1           0       14.244132   -6.722304   -1.621643
     23          1           0       10.459177   -5.352966    0.562421
     24          1           0       11.101405   -3.045546    1.213584
     25          1           0       13.483405   -2.501092    1.689020
     26          1           0       15.219939   -4.275551    1.511797
     27          1           0       14.579158   -6.582639    0.861391
     28          1           0       10.480206   -6.845381    2.686444
     29          1           0        9.317438  -10.837827    1.421690
     30          6           0       15.052858   -8.786234   -3.608725
     31          6           0       15.541900   -7.596321   -4.168106
     32          6           0       15.529726  -10.007691   -4.107461
     33          6           0       16.481698   -7.627360   -5.195320
     34          6           0       16.465507  -10.037636   -5.139090
     35          6           0       16.946799   -8.848145   -5.686805
     36          1           0       15.169841   -6.636432   -3.806305
     37          1           0       15.177847  -10.945676   -3.674810
     38          1           0       16.847865   -6.691640   -5.619419
     39          1           0       16.825385  -10.997168   -5.512303
     40          1           0       17.680483   -8.872015   -6.493117
     41          6           0        8.582314   -8.942060    3.613880
     42          6           0        8.081632   -7.782103    4.223542
     43          6           0        8.167734  -10.189881    4.102958
     44          6           0        7.195028   -7.867782    5.294176
     45          6           0        7.275976  -10.274345    5.169893
     46          6           0        6.786798   -9.114260    5.771216
     47          1           0        8.377196   -6.802612    3.843959
     48          1           0        8.558780  -11.105537    3.656335
     49          1           0        6.814649   -6.954796    5.753805
     50          1           0        6.966809  -11.253485    5.537504
     51          1           0        6.090071   -9.181005    6.607350
 ---------------------------------------------------------------------

 SCF Done:  E(RM062X) =  -1374.17333792     A.U. after    1 cycles

 Alpha  occ. eigenvalues --  -25.21522 -25.21221 -14.80756 -14.80733 -10.62410
 Alpha  occ. eigenvalues --  -10.60980 -10.60978 -10.60221 -10.60201 -10.58667
 Alpha  occ. eigenvalues --  -10.57363 -10.57357 -10.57299 -10.57279 -10.57257
 Alpha  occ. eigenvalues --  -10.57249 -10.56961 -10.56941 -10.56932 -10.56788
 Alpha  occ. eigenvalues --  -10.56771 -10.55953 -10.55952 -10.55911 -10.55909
 Alpha  occ. eigenvalues --  -10.55838 -10.55837 -10.55823 -10.55822 -10.55683
 Alpha  occ. eigenvalues --  -10.55681  -7.13855  -1.31940  -1.28612  -1.12143
 Alpha  occ. eigenvalues --   -1.10205  -0.98862  -0.97118  -0.96997  -0.93599
 Alpha  occ. eigenvalues --   -0.91319  -0.90262  -0.86292  -0.85466  -0.85447
 Alpha  occ. eigenvalues --   -0.84651  -0.84587  -0.84477  -0.81557  -0.76982
 Alpha  occ. eigenvalues --   -0.72522  -0.70795  -0.70773  -0.70154  -0.69926
 Alpha  occ. eigenvalues --   -0.68640  -0.67517  -0.66447  -0.65890  -0.65312
 Alpha  occ. eigenvalues --   -0.62321  -0.61005  -0.60508  -0.58398  -0.57895
 Alpha  occ. eigenvalues --   -0.57463  -0.57287  -0.54807  -0.54010  -0.53270
 Alpha  occ. eigenvalues --   -0.53116  -0.52844  -0.52356  -0.52274  -0.51869
 Alpha  occ. eigenvalues --   -0.51331  -0.51082  -0.50359  -0.49836  -0.49403
 Alpha  occ. eigenvalues --   -0.48749  -0.48727  -0.48118  -0.47216  -0.47167
 Alpha  occ. eigenvalues --   -0.47037  -0.46398  -0.45726  -0.45398  -0.45076
 Alpha  occ. eigenvalues --   -0.44516  -0.44491  -0.42327  -0.41768  -0.41535
 Alpha  occ. eigenvalues --   -0.41003  -0.40617  -0.40075  -0.39937  -0.37735
 Alpha  occ. eigenvalues --   -0.35390  -0.35169  -0.32340  -0.31625  -0.31313
 Alpha  occ. eigenvalues --   -0.31272  -0.30057  -0.28578  -0.25559
 Alpha virt. eigenvalues --   -0.09281   0.00224   0.00719   0.01063   0.01215
 Alpha virt. eigenvalues --    0.02078   0.02251   0.05924   0.09507   0.09921
 Alpha virt. eigenvalues --    0.10378   0.10529   0.11568   0.12413   0.12640

 Mulliken charges:
               1
     1  N   -0.182271
     2  C    0.109066
     3  C   -0.016602
     4  C   -0.070394
     5  C    0.116628
     6  C    0.006020
     7  C    0.006598
     8  C    0.002066
     9  C    0.006320
    10  C    0.005191
    11  C   -0.103163
    12  C    0.113173
    13  C    0.110243
    14  C   -0.065032
    15  C   -0.020238
    16  C    0.109301
    17  N   -0.180481
    18  F   -0.232308
    19  B    0.185104
    20  F   -0.228755
    21  H    0.061477
    22  H    0.026651
    23  H    0.020860
    24  H    0.027423
    25  H    0.026690
    26  H    0.027532
    27  H    0.022191
    28  H    0.027454
    29  H    0.060940
    30  C    0.005052
    31  C   -0.030735
    32  C   -0.034732
    33  C    0.005945
    34  C    0.005372
    35  C   -0.007359
    36  H    0.009312
    37  H    0.008822
    38  H    0.017688
    39  H    0.018213
    40  H    0.016385
    41  C    0.005612
    42  C   -0.029342
    43  C   -0.034024
    44  C    0.005394
    45  C    0.005042
    46  C   -0.007672
    47  H    0.008122
    48  H    0.008808
    49  H    0.017707
    50  H    0.018241
    51  H    0.016463
 Sum of Mulliken charges =   0.00000

 Dipole moment (field-independent basis, Debye):
    X=              2.2604    Y=              6.0505    Z=              2.2028  Tot=              6.8242
 Quadrupole moment (field-independent basis, Debye-Ang):
   XX=           -114.3818   YY=           -261.9064   ZZ=           -170.6307
   XY=             54.9104   XZ=              4.4948   YZ=            -14.2743

  Exact polarizability:     512.475      42.601     465.427    -319.552      45.133     536.824
 Approx polarizability:     439.908      31.922     467.567    -207.379      40.020     436.708

                      1                      2                      3
                      A                      A                      A
 Frequencies --     12.3368                30.6839                32.6971
 Red. masses --      8.4783                 3.6664                 3.7627
 Frc consts  --      0.0008                 0.0020                 0.0024
 IR Inten    --      1.5141                 0.1026                 0.1730

                      4                      5                      6
                      A                      A                      A
 Frequencies --     41.2728                48.6184                50.6330
 Red. masses --      7.5943                 5.7909                 5.4812
 Frc consts  --      0.0076                 0.0081                 0.0083
 IR Inten    --      0.2694                 0.1522                 0.2291

                      7                      8                      9
                      A                      A                      A
 Frequencies --     59.4169                76.1098                93.7593
 Red. masses --      5.2740                 4.4801                 4.6329
 Frc consts  --      0.0110                 0.0153                 0.0240
 IR Inten    --      0.0394                 1.0193                 0.9250

                     10                     11                     12
                      A                      A                      A
 Frequencies --    104.8915               132.6201               136.8653
 Red. masses --      5.2981                 6.0662                 7.1868
 Frc consts  --      0.0343                 0.0629                 0.0793
 IR Inten    --      0.5187                 0.8455                 0.0283

                     13                     14                     15
                      A                      A                      A
 Frequencies --    178.4322               187.3046               205.7178
 Red. masses --      4.7400                 6.0047                 5.5936
 Frc consts  --      0.0889                 0.1241                 0.1395
 IR Inten    --      0.9527                 0.3787                 0.0368

                     16                     17                     18
                      A                      A                      A
 Frequencies --    212.4687               237.8277               249.5134
 Red. masses --      7.8580                 4.9295                 8.5726
 Frc consts  --      0.2090                 0.1643                 0.3144
 IR Inten    --      7.0460                 0.3040                 2.6114

                     19                     20                     21
                      A                      A                      A
 Frequencies --    266.0327               270.9082               304.6082
 Red. masses --      5.1715                 5.5078                 5.3498
 Frc consts  --      0.2156                 0.2382                 0.2925
 IR Inten    --      0.5696                 8.3974                 2.6383

                     22                     23                     24
                      A                      A                      A
 Frequencies --    362.9311               368.1682               387.9239
 Red. masses --      7.2849                 6.1528                 8.4465
 Frc consts  --      0.5654                 0.4914                 0.7489
 IR Inten    --     13.8314                 0.0397                11.9870

                     25                     26                     27
                      A                      A                      A
 Frequencies --    413.4702               414.6480               417.5170
 Red. masses --      2.8834                 2.8941                 3.1841
 Frc consts  --      0.2904                 0.2932                 0.3270
 IR Inten    --      0.5198                 0.0087                10.5697

                     28                     29                     30
                      A                      A                      A
 Frequencies --    420.5119               441.1946               468.0508
 Red. masses --      6.1578                 6.9645                 4.6700
 Frc consts  --      0.6416                 0.7987                 0.6028
 IR Inten    --     49.7499                10.3101               101.2692

                     31                     32                     33
                      A                      A                      A
 Frequencies --    483.7188               507.0118               514.9247
 Red. masses --      5.2818                 4.2509                 5.9875
 Frc consts  --      0.7281                 0.6438                 0.9354
 IR Inten    --      6.0482                24.5351                 9.2480

                     34                     35                     36
                      A                      A                      A
 Frequencies --    525.4400               527.9526               610.4680
 Red. masses --      3.3839                 3.7843                 9.0574
 Frc consts  --      0.5505                 0.6215                 1.9887
 IR Inten    --     11.4007                15.7006                 4.8080

                     37                     38                     39
                      A                      A                      A
 Frequencies --    619.5906               624.0494               624.0744
 Red. masses --      6.2907                 5.9362                 5.8933
 Frc consts  --      1.4229                 1.3621                 1.3523
 IR Inten    --      1.3861                 1.1125                 1.3020

                     40                     41                     42
                      A                      A                      A
 Frequencies --    639.5230               647.1158               654.7962
 Red. masses --      4.4634                 2.4746                 3.0088
 Frc consts  --      1.0755                 0.6106                 0.7601
 IR Inten    --      1.8358                 6.6476                33.7359

                     43                     44                     45
                      A                      A                      A
 Frequencies --    679.8029               681.5041               688.4275
 Red. masses --      6.2125                 6.4136                 5.3075
 Frc consts  --      1.6915                 1.7551                 1.4820
 IR Inten    --     29.3559                67.3317                 0.3734

                     46                     47                     48
                      A                      A                      A
 Frequencies --    710.6144               716.1627               716.3275
 Red. masses --      5.5119                 1.7888                 1.7935
 Frc consts  --      1.6399                 0.5405                 0.5422
 IR Inten    --      2.0612                 8.9862                84.7522

                     49                     50                     51
                      A                      A                      A
 Frequencies --    718.3433               740.7752               769.7836
 Red. masses --      2.4011                 2.3758                 5.5800
 Frc consts  --      0.7300                 0.7681                 1.9482
 IR Inten    --     13.5641               223.7209                77.5626

                     52                     53                     54
                      A                      A                      A
 Frequencies --    789.9390               791.2155               801.9518
 Red. masses --      1.8260                 1.8740                 2.4150
 Frc consts  --      0.6713                 0.6912                 0.9151
 IR Inten    --     20.7596                89.7281                 8.6547

                     55                     56                     57
                      A                      A                      A
 Frequencies --    870.4804               870.9228               876.9093
 Red. masses --      1.2807                 1.2689                 1.3739
 Frc consts  --      0.5718                 0.5671                 0.6225
 IR Inten    --      0.1439                 0.3902                 3.0431

                     58                     59                     60
                      A                      A                      A
 Frequencies --    880.9881               884.9105               896.8089
 Red. masses --      1.4895                 1.2740                 1.5880
 Frc consts  --      0.6811                 0.5878                 0.7525
 IR Inten    --     13.5742                 6.8512                10.7424

                     61                     62                     63
                      A                      A                      A
 Frequencies --    900.2172               926.7061               936.0247
 Red. masses --      1.5768                 6.5709                 6.2976
 Frc consts  --      0.7529                 3.3248                 3.2508
 IR Inten    --     29.4729                39.3340                63.1118

                     64                     65                     66
                      A                      A                      A
 Frequencies --    950.6944               950.8664               956.0467
 Red. masses --      1.5502                 1.4770                 6.0101
 Frc consts  --      0.8255                 0.7868                 3.2366
 IR Inten    --      8.4641                 0.3096                34.7974

                     67                     68                     69
                      A                      A                      A
 Frequencies --    963.0281               988.8921              1006.0129
 Red. masses --      1.5387                 2.6591                 1.4049
 Frc consts  --      0.8408                 1.5321                 0.8377
 IR Inten    --      8.2552                 1.2349                 0.7305

                     70                     71                     72
                      A                      A                      A
 Frequencies --   1006.3711              1012.4175              1013.1103
 Red. masses --      1.4001                 5.3875                 5.0276
 Frc consts  --      0.8355                 3.2536                 3.0404
 IR Inten    --      0.6141                13.1715                 3.6123

                     73                     74                     75
                      A                      A                      A
 Frequencies --   1013.2237              1015.6856              1026.3782
 Red. masses --      5.1291                 1.4089                 4.5749
 Frc consts  --      3.1024                 0.8563                 2.8395
 IR Inten    --      0.1379                13.3975               211.9927

                     76                     77                     78
                      A                      A                      A
 Frequencies --   1028.1475              1028.8192              1036.8794
 Red. masses --      1.3071                 1.3071                 1.3094
 Frc consts  --      0.8141                 0.8151                 0.8294
 IR Inten    --      0.6424                 0.7491                 0.2176

                     79                     80                     81
                      A                      A                      A
 Frequencies --   1059.8251              1060.7542              1061.7738
 Red. masses --      2.2803                 2.1239                 2.1342
 Frc consts  --      1.5090                 1.4081                 1.4176
 IR Inten    --      4.3830                12.0333                 6.8616

                     82                     83                     84
                      A                      A                      A
 Frequencies --   1079.8366              1086.3529              1101.2269
 Red. masses --      1.8022                 1.8138                 1.5780
 Frc consts  --      1.2381                 1.2612                 1.1275
 IR Inten    --    360.2185                70.4421               559.5735

                     85                     86                     87
                      A                      A                      A
 Frequencies --   1105.4758              1107.6914              1135.8687
 Red. masses --      1.4701                 1.4493                 2.7765
 Frc consts  --      1.0585                 1.0477                 2.1106
 IR Inten    --     19.4414                 7.3628              2524.6825

                     88                     89                     90
                      A                      A                      A
 Frequencies --   1158.3515              1159.2333              1161.9558
 Red. masses --      1.0870                 1.0888                 1.0923
 Frc consts  --      0.8594                 0.8621                 0.8689
 IR Inten    --      4.2561                 9.7820                 1.5688

                     91                     92                     93
                      A                      A                      A
 Frequencies --   1165.4881              1181.1210              1186.3719
 Red. masses --      5.1337                 4.6449                 1.1286
 Frc consts  --      4.1086                 3.8178                 0.9359
 IR Inten    --    302.7954               351.7358                 8.5791

                     94                     95                     96
                      A                      A                      A
 Frequencies --   1189.4535              1190.7739              1193.1131
 Red. masses --      1.5803                 1.3703                 1.2104
 Frc consts  --      1.3173                 1.1448                 1.0152
 IR Inten    --      7.3532                11.0894                 4.2204

                     97                     98                     99
                      A                      A                      A
 Frequencies --   1198.2546              1238.4428              1274.7849
 Red. masses --      1.6180                 2.4365                 2.5299
 Frc consts  --      1.3688                 2.2018                 2.4223
 IR Inten    --      8.9011                19.4540              1079.1219

                    100                    101                    102
                      A                      A                      A
 Frequencies --   1298.4829              1312.9124              1318.9060
 Red. masses --      2.3578                 1.8522                 1.6882
 Frc consts  --      2.3422                 1.8811                 1.7302
 IR Inten    --    844.8566                 9.3874                97.8027

                    103                    104                    105
                      A                      A                      A
 Frequencies --   1333.9493              1340.0834              1348.6566
 Red. masses --      2.7422                 3.9036                 3.6567
 Frc consts  --      2.8749                 4.1303                 3.9187
 IR Inten    --    683.8871               110.2812                 2.1047

                    106                    107                    108
                      A                      A                      A
 Frequencies --   1349.4964              1351.7388              1417.4876
 Red. masses --      3.0580                 2.7909                 4.4599
 Frc consts  --      3.2812                 3.0046                 5.2797
 IR Inten    --     13.0240                21.2185               224.1013

                    109                    110                    111
                      A                      A                      A
 Frequencies --   1421.0759              1441.6109              1447.7571
 Red. masses --      4.6501                 5.7582                 4.5850
 Frc consts  --      5.5328                 7.0507                 5.6621
 IR Inten    --    310.8122                20.1767                 5.5170

                    112                    113                    114
                      A                      A                      A
 Frequencies --   1477.4900              1489.1423              1491.1115
 Red. masses --      2.5420                 2.7370                 2.8807
 Frc consts  --      3.2694                 3.5760                 3.7736
 IR Inten    --     36.1529               243.9589                28.3104

                    115                    116                    117
                      A                      A                      A
 Frequencies --   1498.8185              1529.4533              1532.0872
 Red. masses --      3.4767                 3.0234                 2.7446
 Frc consts  --      4.6017                 4.1670                 3.7957
 IR Inten    --      9.1328               221.9664                 4.2656

                    118                    119                    120
                      A                      A                      A
 Frequencies --   1545.9869              1570.7715              1595.1837
 Red. masses --      6.3412                 5.8682                 7.5703
 Frc consts  --      8.9296                 8.5306                11.3497
 IR Inten    --    156.8368                59.6788              1290.6080

                    121                    122                    123
                      A                      A                      A
 Frequencies --   1634.2569              1641.5103              1658.2391
 Red. masses --      6.5093                 6.3516                 6.5485
 Frc consts  --     10.2430                10.0837                10.6093
 IR Inten    --   1072.9223                 1.0342               133.4832

                    124                    125                    126
                      A                      A                      A
 Frequencies --   1661.7527              1662.3274              1682.5446
 Red. masses --      6.5680                 6.5599                 6.5141
 Frc consts  --     10.6860                10.6802                10.8653
 IR Inten    --     13.8025                16.4473                16.1632

                    127                    128                    129
                      A                      A                      A
 Frequencies --   1689.9100              1691.2577              3204.6297
 Red. masses --      6.5769                 6.5362                 1.0860
 Frc consts  --     11.0662                11.0153                 6.5708
 IR Inten    --      7.4689                 9.9142                11.2577

                    130                    131                    132
                      A                      A                      A
 Frequencies --   3205.7118              3207.9520              3209.4164
 Red. masses --      1.0858                 1.0885                 1.0885
 Frc consts  --      6.5745                 6.5999                 6.6058
 IR Inten    --      9.4676                 0.5463                 0.6806

                    133                    134                    135
                      A                      A                      A
 Frequencies --   3212.9726              3217.6606              3218.1099
 Red. masses --      1.0862                 1.0920                 1.0920
 Frc consts  --      6.6064                 6.6610                 6.6629
 IR Inten    --      0.3935                 2.4543                 3.4180

                    136                    137                    138
                      A                      A                      A
 Frequencies --   3218.3860              3223.6909              3224.0061
 Red. masses --      1.0893                 1.0964                 1.0929
 Frc consts  --      6.6475                 6.7132                 6.6931
 IR Inten    --      0.2650                25.6922                 3.8371

                    139                    140                    141
                      A                      A                      A
 Frequencies --   3224.9287              3232.3646              3234.9386
 Red. masses --      1.0964                 1.0969                 1.1001
 Frc consts  --      6.7185                 6.7523                 6.7830
 IR Inten    --     26.5579                 9.3690                25.4995

                    142                    143                    144
                      A                      A                      A
 Frequencies --   3235.1121              3239.4137              3265.4072
 Red. masses --      1.1003                 1.1005                 1.0980
 Frc consts  --      6.7847                 6.8041                 6.8982
 IR Inten    --     18.5690                10.9117                 3.8452

                    145                    146                    147
                      A                      A                      A
 Frequencies --   3265.7189              3276.3310              3280.6712
 Red. masses --      1.0982                 1.0982                 1.0980
 Frc consts  --      6.9008                 6.9455                 6.9627
 IR Inten    --      2.6636                 1.7149                 1.7984

 - Thermochemistry -
 -------------------
 Temperature   298.150 Kelvin.  Pressure   1.00000 Atm.
 Atom     1 has atomic number  7 and mass  14.00307

 Molecular mass:   420.16094 amu.
 Principal axes and moments of inertia in atomic units:
                           1         2         3
     Eigenvalues --  7362.57876********************
           X           -0.66920   0.24361   0.70202
           Y           -0.01269   0.94085  -0.33858
           Z            0.74298   0.23548   0.62652
 This molecule is an asymmetric top.
 Rotational symmetry number  1.
 Warning -- assumption of classical behavior for rotation
           may cause significant error
 Rotational temperatures (Kelvin)      0.01176     0.00340     0.00272
 Rotational constants (GHZ):           0.24512     0.07094     0.05672
 Zero-point vibrational energy    1043016.6 (Joules/Mol)
                                  249.28695 (Kcal/Mol)
 Warning -- explicit consideration of  37 degrees of freedom as
           vibrations may cause significant error
 Vibrational temperatures:     17.75    44.15    47.04    59.38    69.95
          (Kelvin)             72.85    85.49   109.50   134.90   150.92
                              190.81   196.92   256.72   269.49   295.98
                              305.70   342.18   358.99   382.76   389.78
                              438.26   522.18   529.71   558.14   594.89
                              596.59   600.71   605.02   634.78   673.42
                              695.96   729.48   740.86   755.99   759.61
                              878.33   891.45   897.87   897.90   920.13
                              931.06   942.11   978.08   980.53   990.49
                             1022.42  1030.40  1030.64  1033.54  1065.81
                             1107.55  1136.55  1138.38  1153.83  1252.43
                             1253.06  1261.68  1267.55  1273.19  1290.31
                             1295.21  1333.32  1346.73  1367.84  1368.08
                             1375.54  1385.58  1422.80  1447.43  1447.94
                             1456.64  1457.64  1457.80  1461.35  1476.73
                             1479.28  1480.24  1491.84  1524.85  1526.19
                             1527.66  1553.64  1563.02  1584.42  1590.53
                             1593.72  1634.26  1666.61  1667.88  1671.80
                             1676.88  1699.37  1706.92  1711.36  1713.26
                             1716.62  1724.02  1781.84  1834.13  1868.23
                             1888.99  1897.61  1919.26  1928.08  1940.42
                             1941.62  1944.85  2039.45  2044.61  2074.16
                             2083.00  2125.78  2142.54  2145.38  2156.47
                             2200.54  2204.33  2224.33  2259.99  2295.11
                             2351.33  2361.77  2385.84  2390.89  2391.72
                             2420.81  2431.40  2433.34  4610.75  4612.30
                             4615.53  4617.63  4622.75  4629.50  4630.14
                             4630.54  4638.17  4638.63  4639.95  4650.65
                             4654.36  4654.60  4660.79  4698.19  4698.64
                             4713.91  4720.15

 Zero-point correction=                           0.397264 (Hartree/Particle)
 Thermal correction to Energy=                    0.421957
 Thermal correction to Enthalpy=                  0.422901
 Thermal correction to Gibbs Free Energy=         0.339867
 Sum of electronic and zero-point Energies=          -1373.776074
 Sum of electronic and thermal Energies=             -1373.751381
 Sum of electronic and thermal Enthalpies=           -1373.750437
 Sum of electronic and thermal Free Energies=        -1373.833471

                     E (Thermal)             CV                S
                      KCal/Mol        Cal/Mol-Kelvin    Cal/Mol-Kelvin
 Total                  264.782             98.521            174.760
 Electronic               0.000              0.000              0.000
 Translational            0.889              2.981             43.997
 Rotational               0.889              2.981             37.031
 Vibrational            263.005             92.560             93.732
 Vibration     1          0.593              1.987              7.594
 Vibration     2          0.594              1.984              5.785
 Vibration     3          0.594              1.983              5.659
 Vibration     4          0.594              1.981              5.197
 Vibration     5          0.595              1.978              4.873
 Vibration     6          0.595              1.977              4.793
 Vibration     7          0.597              1.974              4.476
 Vibration     8          0.599              1.965              3.989
 Vibration     9          0.603              1.954              3.580
 Vibration    10          0.605              1.945              3.361
 Vibration    11          0.613              1.921              2.908
 Vibration    12          0.614              1.917              2.847
 Vibration    13          0.629              1.869              2.345
 Vibration    14          0.632              1.857              2.254
 Vibration    15          0.640              1.832              2.081
 Vibration    16          0.644              1.822              2.022
 Vibration    17          0.656              1.783              1.819
 Vibration    18          0.662              1.764              1.734
 Vibration    19          0.672              1.735              1.622
 Vibration    20          0.675              1.727              1.590
 Vibration    21          0.696              1.665              1.391
 Vibration    22          0.737              1.549              1.110
 Vibration    23          0.741              1.538              1.087
 Vibration    24          0.756              1.496              1.008
 Vibration    25          0.777              1.441              0.914
 Vibration    26          0.778              1.438              0.910
 Vibration    27          0.781              1.432              0.900
 Vibration    28          0.783              1.426              0.890
 Vibration    29          0.801              1.380              0.823
 Vibration    30          0.825              1.321              0.743
 Vibration    31          0.840              1.286              0.700
 Vibration    32          0.862              1.234              0.641
 Vibration    33          0.870              1.217              0.622
 Vibration    34          0.880              1.194              0.597
 Vibration    35          0.883              1.188              0.592
 Vibration    36          0.970              1.010              0.432
 Vibration    37          0.980              0.991              0.417

 Optimization completed on the basis of negligible forces.
    -- Stationary point found.
 Normal termination of Gaussian 16 at Tue Feb  1 13:30:35 2022.
