 Gaussian 09, Revision D.01,
 Gaussian 09:  EM64L-G09RevD.01 24-Apr-2013

 ----------------------------------------------------------------------
 #p m062x cc-pvdz scrf=(cpcm,solvent=Toluene) opt=(tight,calcfc) freq n
 osymm int=ultrafine fchk
 ----------------------------------------------------------------------

 --------------------------------------
 BODIPY-phenyl with phenyls, initial v3
 --------------------------------------
 Symbolic Z-matrix:
 Charge =  0 Multiplicity = 1

 SCF Done:  E(RM062X) =  -1374.16800493     A.U. after   13 cycles
 SCF Done:  E(RM062X) =  -1374.16826404     A.U. after    9 cycles
 SCF Done:  E(RM062X) =  -1374.16826422     A.U. after    7 cycles
 SCF Done:  E(RM062X) =  -1374.16826422     A.U. after    5 cycles
 SCF Done:  E(RM062X) =  -1374.16826422     A.U. after    3 cycles
 SCF Done:  E(RM062X) =  -1374.16826422     A.U. after    3 cycles
 Optimization completed.
    -- Stationary point found.
 Normal termination of Gaussian 09 at Wed Apr 22 11:29:18 2020.

 -------------------------------------------------------------------
 #P Geom=AllCheck Guess=TCheck SCRF=Check GenChk RM062X/CC-pVDZ Freq
 -------------------------------------------------------------------

 Structure from the checkpoint file:  "bodipy.chk"
 --------------------------------------
 BODIPY-phenyl with phenyls, initial v3
 --------------------------------------
 Charge =  0 Multiplicity = 1

                          Input orientation:
 ---------------------------------------------------------------------
 Center     Atomic      Atomic             Coordinates (Angstroms)
 Number     Number       Type             X           Y           Z
 ---------------------------------------------------------------------
      1          7           0       12.395811   -9.430470   -1.150557
      2          6           0       13.168782   -9.796283   -2.172500
      3          6           0       14.055571   -8.747484   -2.526599
      4          6           0       13.769149   -7.697992   -1.654043
      5          6           0       12.738539   -8.134384   -0.787097
      6          6           0       11.505250   -5.110809    0.774831
      7          6           0       11.873039   -3.817651    1.137842
      8          6           0       13.208484   -3.518786    1.408904
      9          6           0       14.178961   -4.516210    1.310414
     10          6           0       13.819421   -5.807974    0.934324
     11          6           0       12.477765   -6.115595    0.665446
     12          6           0       12.086797   -7.487544    0.275819
     13          6           0       11.069602   -8.150425    0.982211
     14          6           0       10.354497   -7.778637    2.146142
     15          6           0        9.521158   -8.844419    2.484251
     16          6           0        9.761846   -9.846635    1.509702
     17          7           0       10.672263   -9.432927    0.628926
     18          9           0       11.588215  -11.510670   -0.203172
     19          5           0       11.184504  -10.242864   -0.599361
     20          9           0       10.191729  -10.320660   -1.570082
     21          1           0       13.045490  -10.774465   -2.632987
     22          1           0       14.245705   -6.722279   -1.620790
     23          1           0       10.463965   -5.345001    0.549261
     24          1           0       11.112409   -3.039591    1.206786
     25          1           0       13.493434   -2.506847    1.698555
     26          1           0       15.222259   -4.289380    1.531182
     27          1           0       14.573676   -6.593647    0.873777
     28          1           0       10.483693   -6.846251    2.688930
     29          1           0        9.308246  -10.830733    1.411087
     30          6           0       15.051465   -8.785296   -3.609142
     31          6           0       15.528135   -7.597821   -4.183362
     32          6           0       15.544581  -10.007298   -4.089467
     33          6           0       16.472185   -7.631546   -5.206120
     34          6           0       16.484336  -10.040295   -5.116939
     35          6           0       16.953621   -8.853044   -5.678849
     36          1           0       15.140855   -6.638307   -3.836766
     37          1           0       15.202442  -10.942714   -3.643597
     38          1           0       16.828422   -6.697575   -5.642372
     39          1           0       16.857069  -11.000412   -5.475728
     40          1           0       17.690538   -8.879213   -6.482109
     41          6           0        8.583865   -8.941845    3.614265
     42          6           0        8.072495   -7.784206    4.218701
     43          6           0        8.183517  -10.190659    4.111655
     44          6           0        7.189865   -7.872789    5.291913
     45          6           0        7.295493  -10.278404    5.180985
     46          6           0        6.795919   -9.120380    5.776941
     47          1           0        8.356477   -6.804399    3.831154
     48          1           0        8.584389  -11.104169    3.669337
     49          1           0        6.800731   -6.961319    5.747235
     50          1           0        6.997561  -11.258554    5.555075
     51          1           0        6.101955   -9.189622    6.615141
 ---------------------------------------------------------------------

 SCF Done:  E(RM062X) =  -1374.16826422     A.U. after    1 cycles

 Alpha  occ. eigenvalues --  -25.20858 -25.20514 -14.80487 -14.80466 -10.62243
 Alpha  occ. eigenvalues --  -10.60774 -10.60774 -10.60042 -10.60021 -10.58791
 Alpha  occ. eigenvalues --  -10.57550 -10.57544 -10.57197 -10.57161 -10.57139
 Alpha  occ. eigenvalues --  -10.57126 -10.57120 -10.57062 -10.57044 -10.56790
 Alpha  occ. eigenvalues --  -10.56770 -10.55871 -10.55869 -10.55855 -10.55850
 Alpha  occ. eigenvalues --  -10.55786 -10.55783 -10.55768 -10.55768 -10.55633
 Alpha  occ. eigenvalues --  -10.55632  -7.13339  -1.31308  -1.27988  -1.11911
 Alpha  occ. eigenvalues --   -1.09989  -0.98988  -0.97027  -0.96907  -0.93589
 Alpha  occ. eigenvalues --   -0.91151  -0.90112  -0.86351  -0.85526  -0.85487
 Alpha  occ. eigenvalues --   -0.84603  -0.84525  -0.84371  -0.81413  -0.76891
 Alpha  occ. eigenvalues --   -0.72379  -0.70914  -0.70732  -0.70094  -0.69865
 Alpha  occ. eigenvalues --   -0.68600  -0.67428  -0.66288  -0.65790  -0.65228
 Alpha  occ. eigenvalues --   -0.62217  -0.61133  -0.60113  -0.58210  -0.57623
 Alpha  occ. eigenvalues --   -0.57224  -0.57160  -0.54723  -0.54088  -0.53080
 Alpha  occ. eigenvalues --   -0.53038  -0.52695  -0.52342  -0.52245  -0.51752
 Alpha  occ. eigenvalues --   -0.51137  -0.50825  -0.50316  -0.49982  -0.49360
 Alpha  occ. eigenvalues --   -0.48724  -0.48696  -0.47956  -0.47073  -0.46976
 Alpha  occ. eigenvalues --   -0.46717  -0.46150  -0.45365  -0.45188  -0.44801
 Alpha  occ. eigenvalues --   -0.44335  -0.44263  -0.42050  -0.41946  -0.41677
 Alpha  occ. eigenvalues --   -0.40967  -0.40551  -0.40052  -0.39891  -0.37615
 Alpha  occ. eigenvalues --   -0.35171  -0.34955  -0.32544  -0.31729  -0.31201
 Alpha  occ. eigenvalues --   -0.31171  -0.29895  -0.28457  -0.25357
 Alpha virt. eigenvalues --   -0.09105   0.00323   0.00775   0.01011   0.01112
 Alpha virt. eigenvalues --    0.02191   0.02342   0.06114   0.09177   0.10027
 Alpha virt. eigenvalues --    0.10261   0.10342   0.11581   0.12209   0.12544

 Mulliken charges:
               1
     1  N   -0.182298
     2  C    0.113023
     3  C   -0.013743
     4  C   -0.071294
     5  C    0.120039
     6  C    0.007163
     7  C    0.008536
     8  C    0.003318
     9  C    0.008332
    10  C    0.006181
    11  C   -0.100644
    12  C    0.106937
    13  C    0.113299
    14  C   -0.066384
    15  C   -0.017656
    16  C    0.113124
    17  N   -0.180385
    18  F   -0.225915
    19  B    0.189007
    20  F   -0.220162
    21  H    0.057879
    22  H    0.019896
    23  H    0.018024
    24  H    0.022872
    25  H    0.021936
    26  H    0.023127
    27  H    0.019464
    28  H    0.021416
    29  H    0.057328
    30  C    0.009343
    31  C   -0.026412
    32  C   -0.030387
    33  C    0.009309
    34  C    0.009000
    35  C   -0.004253
    36  H    0.003907
    37  H    0.004415
    38  H    0.012872
    39  H    0.013925
    40  H    0.011869
    41  C    0.010728
    42  C   -0.025166
    43  C   -0.029974
    44  C    0.008984
    45  C    0.008832
    46  C   -0.004472
    47  H    0.001781
    48  H    0.004633
    49  H    0.012756
    50  H    0.013961
    51  H    0.011926
 Sum of Mulliken charges =   0.00000

 Dipole moment (field-independent basis, Debye):
    X=              2.1073    Y=              5.4499    Z=              2.0414  Tot=              6.1895
 Quadrupole moment (field-independent basis, Debye-Ang):
   XX=           -119.3291   YY=           -253.3252   ZZ=           -171.8203
   XY=             48.7036   XZ=              3.8143   YZ=            -13.4042

  Exact polarizability: 464.792  37.606 414.690-290.674  38.535 491.510
 Approx polarizability: 441.256  30.314 466.422-208.278  38.610 438.493

                      1                      2                      3
                      A                      A                      A
 Frequencies --     11.5243                30.5275                31.6637
 Red. masses --      8.4683                 3.6332                 3.7709
 Frc consts  --      0.0007                 0.0020                 0.0022
 IR Inten    --      1.2840                 0.0519                 0.1613

                      4                      5                      6
                      A                      A                      A
 Frequencies --     40.5530                48.2794                50.2324
 Red. masses --      7.6685                 5.8021                 5.4863
 Frc consts  --      0.0074                 0.0080                 0.0082
 IR Inten    --      0.2425                 0.1317                 0.1759

                      7                      8                      9
                      A                      A                      A
 Frequencies --     58.4862                74.6302                93.7447
 Red. masses --      5.2156                 4.5157                 4.6509
 Frc consts  --      0.0105                 0.0148                 0.0241
 IR Inten    --      0.0271                 0.6397                 0.8106

                     10                     11                     12
                      A                      A                      A
 Frequencies --    104.1230               132.2163               136.2297
 Red. masses --      5.2721                 6.0752                 7.2633
 Frc consts  --      0.0337                 0.0626                 0.0794
 IR Inten    --      0.3796                 0.7379                 0.0262

                     13                     14                     15
                      A                      A                      A
 Frequencies --    178.1189               186.7398               204.9044
 Red. masses --      4.7186                 5.9360                 5.6336
 Frc consts  --      0.0882                 0.1220                 0.1394
 IR Inten    --      0.7265                 0.3709                 0.0365

                     16                     17                     18
                      A                      A                      A
 Frequencies --    211.3126               237.4435               249.1683
 Red. masses --      7.8138                 4.9322                 8.5964
 Frc consts  --      0.2056                 0.1638                 0.3145
 IR Inten    --      4.4815                 0.1541                 2.3423

                     19                     20                     21
                      A                      A                      A
 Frequencies --    265.9326               271.0686               304.4368
 Red. masses --      5.1833                 5.4653                 5.3646
 Frc consts  --      0.2160                 0.2366                 0.2929
 IR Inten    --      0.4990                 5.8951                 2.0157

                     22                     23                     24
                      A                      A                      A
 Frequencies --    362.0129               367.7349               388.0773
 Red. masses --      7.2260                 6.1564                 8.3987
 Frc consts  --      0.5580                 0.4905                 0.7452
 IR Inten    --      9.4256                 0.0332                 8.9652

                     25                     26                     27
                      A                      A                      A
 Frequencies --    413.0346               414.0070               417.4345
 Red. masses --      2.8846                 2.8942                 3.1195
 Frc consts  --      0.2899                 0.2923                 0.3203
 IR Inten    --      0.3473                 0.0471                 6.1891

                     28                     29                     30
                      A                      A                      A
 Frequencies --    420.9151               439.9997               467.1241
 Red. masses --      6.4305                 6.8226                 4.6750
 Frc consts  --      0.6713                 0.7782                 0.6010
 IR Inten    --     36.3801                 7.3115                74.6784

                     31                     32                     33
                      A                      A                      A
 Frequencies --    483.1262               507.5953               514.8898
 Red. masses --      5.3652                 4.2522                 5.9039
 Frc consts  --      0.7378                 0.6455                 0.9222
 IR Inten    --      4.8420                18.8212                 7.6903

                     34                     35                     36
                      A                      A                      A
 Frequencies --    525.5485               528.1962               610.7849
 Red. masses --      3.3765                 3.7780                 9.0356
 Frc consts  --      0.5495                 0.6210                 1.9860
 IR Inten    --      8.9863                12.8788                 4.5783

                     37                     38                     39
                      A                      A                      A
 Frequencies --    619.9466               624.4276               624.5397
 Red. masses --      6.2791                 5.9010                 5.8532
 Frc consts  --      1.4219                 1.3556                 1.3451
 IR Inten    --      1.3255                 0.7731                 0.8443

                     40                     41                     42
                      A                      A                      A
 Frequencies --    639.7326               647.1235               655.2128
 Red. masses --      4.4177                 2.4845                 3.0491
 Frc consts  --      1.0652                 0.6130                 0.7712
 IR Inten    --      1.5363                 5.1061                25.4108

                     43                     44                     45
                      A                      A                      A
 Frequencies --    680.3981               681.9680               689.3953
 Red. masses --      6.2122                 6.4020                 5.2921
 Frc consts  --      1.6944                 1.7543                 1.4819
 IR Inten    --     23.6781                59.9560                 0.4145

                     46                     47                     48
                      A                      A                      A
 Frequencies --    710.8987               715.6035               715.8191
 Red. masses --      5.4997                 1.7896                 1.7944
 Frc consts  --      1.6376                 0.5400                 0.5417
 IR Inten    --      1.6671                10.3362                68.5025

                     49                     50                     51
                      A                      A                      A
 Frequencies --    718.3389               741.0530               769.1629
 Red. masses --      2.4150                 2.3862                 5.5433
 Frc consts  --      0.7342                 0.7721                 1.9322
 IR Inten    --     12.2226               171.8427                54.0650

                     52                     53                     54
                      A                      A                      A
 Frequencies --    789.0447               790.3284               801.5021
 Red. masses --      1.8213                 1.8767                 2.3935
 Frc consts  --      0.6681                 0.6907                 0.9059
 IR Inten    --     15.6332                79.4819                 7.7506

                     55                     56                     57
                      A                      A                      A
 Frequencies --    868.6039               869.3207               874.5265
 Red. masses --      1.2931                 1.2725                 1.3794
 Frc consts  --      0.5748                 0.5666                 0.6216
 IR Inten    --      0.2557                 0.4761                 2.4119

                     58                     59                     60
                      A                      A                      A
 Frequencies --    878.0641               884.1143               896.9212
 Red. masses --      1.4928                 1.2624                 1.5782
 Frc consts  --      0.6781                 0.5814                 0.7480
 IR Inten    --     11.3292                 5.5200                 8.3670

                     61                     62                     63
                      A                      A                      A
 Frequencies --    900.6220               927.5668               936.5360
 Red. masses --      1.5688                 6.5520                 6.1295
 Frc consts  --      0.7497                 3.3213                 3.1676
 IR Inten    --     23.5335                28.3450                48.4074

                     64                     65                     66
                      A                      A                      A
 Frequencies --    948.5941               948.7744               957.2590
 Red. masses --      1.5071                 1.4859                 6.6954
 Frc consts  --      0.7990                 0.7881                 3.6148
 IR Inten    --      3.2898                 1.3179                26.1005

                     67                     68                     69
                      A                      A                      A
 Frequencies --    960.9935               987.1003              1003.4204
 Red. masses --      1.5532                 2.6426                 1.3894
 Frc consts  --      0.8451                 1.5171                 0.8242
 IR Inten    --      4.4902                 1.6294                 0.3232

                     70                     71                     72
                      A                      A                      A
 Frequencies --   1003.6512              1013.3169              1013.4098
 Red. masses --      1.3986                 2.5654                 2.9072
 Frc consts  --      0.8300                 1.5520                 1.7591
 IR Inten    --      0.4601                 7.7461                 0.4367

                     73                     74                     75
                      A                      A                      A
 Frequencies --   1013.8164              1014.5512              1025.6075
 Red. masses --      5.1843                 2.7536                 1.3038
 Frc consts  --      3.1395                 1.6700                 0.8080
 IR Inten    --      2.9506                 4.1860                 0.4875

                     76                     77                     78
                      A                      A                      A
 Frequencies --   1026.2147              1030.2306              1034.6096
 Red. masses --      1.3035                 4.2878                 1.3072
 Frc consts  --      0.8088                 2.6813                 0.8244
 IR Inten    --      0.5668               165.7164                 0.1805

                     79                     80                     81
                      A                      A                      A
 Frequencies --   1060.6483              1061.4183              1062.4602
 Red. masses --      2.2645                 2.1606                 2.1178
 Frc consts  --      1.5010                 1.4342                 1.4085
 IR Inten    --      2.8553                 8.9055                 5.1337

                     82                     83                     84
                      A                      A                      A
 Frequencies --   1078.6053              1086.8134              1102.8379
 Red. masses --      1.7645                 1.8878                 1.5281
 Frc consts  --      1.2095                 1.3137                 1.0951
 IR Inten    --    201.6269                62.3523               296.3491

                     85                     86                     87
                      A                      A                      A
 Frequencies --   1105.9653              1107.8803              1141.0050
 Red. masses --      1.4668                 1.4524                 2.9122
 Frc consts  --      1.0570                 1.0503                 2.2338
 IR Inten    --     16.4383                 7.6826              1910.4223

                     88                     89                     90
                      A                      A                      A
 Frequencies --   1160.2237              1161.2420              1163.7469
 Red. masses --      1.0894                 1.0907                 1.0960
 Frc consts  --      0.8640                 0.8665                 0.8745
 IR Inten    --      3.5453                 6.2863                 1.0968

                     91                     92                     93
                      A                      A                      A
 Frequencies --   1169.5582              1187.6830              1188.7884
 Red. masses --      3.9810                 1.1585                 2.1316
 Frc consts  --      3.2083                 0.9628                 1.7749
 IR Inten    --    270.6196                21.0787                21.7751

                     94                     95                     96
                      A                      A                      A
 Frequencies --   1191.6033              1193.2795              1194.2499
 Red. masses --      1.1346                 1.6449                 1.2056
 Frc consts  --      0.9492                 1.3799                 1.0131
 IR Inten    --      6.4580                78.0721                26.6106

                     97                     98                     99
                      A                      A                      A
 Frequencies --   1200.8188              1239.2053              1277.3145
 Red. masses --      4.4502                 2.4402                 2.6586
 Frc consts  --      3.7808                 2.2078                 2.5556
 IR Inten    --    184.5508                13.4341               731.0913

                    100                    101                    102
                      A                      A                      A
 Frequencies --   1300.6757              1313.0421              1319.2797
 Red. masses --      2.2555                 1.8199                 1.6528
 Frc consts  --      2.2482                 1.8487                 1.6949
 IR Inten    --    749.8076                 8.6287                81.3671

                    103                    104                    105
                      A                      A                      A
 Frequencies --   1336.2815              1339.7102              1349.3212
 Red. masses --      2.9929                 3.8977                 3.6977
 Frc consts  --      3.1488                 4.1218                 3.9665
 IR Inten    --    749.0691                92.0953                 2.3487

                    106                    107                    108
                      A                      A                      A
 Frequencies --   1350.2880              1352.2181              1418.4802
 Red. masses --      3.1382                 2.8727                 4.5100
 Frc consts  --      3.3712                 3.0948                 5.3466
 IR Inten    --     10.6020                17.9946               172.1834

                    109                    110                    111
                      A                      A                      A
 Frequencies --   1422.4065              1442.9185              1449.3437
 Red. masses --      4.6222                 5.7798                 4.6091
 Frc consts  --      5.5099                 7.0900                 5.7044
 IR Inten    --    273.9927                18.6907                10.7453

                    112                    113                    114
                      A                      A                      A
 Frequencies --   1478.4686              1490.0404              1491.7724
 Red. masses --      2.5408                 2.7413                 2.8640
 Frc consts  --      3.2722                 3.5859                 3.7551
 IR Inten    --     26.4052               188.9318                25.8306

                    115                    116                    117
                      A                      A                      A
 Frequencies --   1500.5487              1530.7336              1533.0417
 Red. masses --      3.4621                 3.0301                 2.7587
 Frc consts  --      4.5929                 4.1832                 3.8200
 IR Inten    --      6.3337               188.0013                 3.5885

                    118                    119                    120
                      A                      A                      A
 Frequencies --   1548.3886              1572.8769              1600.0254
 Red. masses --      6.4146                 6.0075                 7.4990
 Frc consts  --      9.0611                 8.7566                11.3111
 IR Inten    --    119.6957                44.2973               967.3425

                    121                    122                    123
                      A                      A                      A
 Frequencies --   1637.4460              1643.0484              1660.1112
 Red. masses --      6.7579                 6.4416                 6.5907
 Frc consts  --     10.6757                10.2458                10.7017
 IR Inten    --   1028.2894                 1.0361               144.6770

                    124                    125                    126
                      A                      A                      A
 Frequencies --   1663.0958              1663.5207              1684.6196
 Red. masses --      6.5743                 6.5779                 6.5078
 Frc consts  --     10.7136                10.7249                10.8816
 IR Inten    --     14.4211                24.3139                10.2598

                    127                    128                    129
                      A                      A                      A
 Frequencies --   1691.4703              1692.7544              3203.7029
 Red. masses --      6.5770                 6.5388                 1.0857
 Frc consts  --     11.0868                11.0392                 6.5654
 IR Inten    --      7.2519                 9.2254                11.3329

                    130                    131                    132
                      A                      A                      A
 Frequencies --   3205.0252              3207.2399              3208.9690
 Red. masses --      1.0856                 1.0884                 1.0884
 Frc consts  --      6.5703                 6.5962                 6.6033
 IR Inten    --      9.3310                 0.2885                 0.5577

                    133                    134                    135
                      A                      A                      A
 Frequencies --   3211.6505              3217.1339              3217.3385
 Red. masses --      1.0860                 1.0920                 1.0891
 Frc consts  --      6.5997                 6.6588                 6.6423
 IR Inten    --      0.4452                 2.8552                 0.4658

                    136                    137                    138
                      A                      A                      A
 Frequencies --   3217.7810              3223.2708              3223.3827
 Red. masses --      1.0919                 1.0964                 1.0929
 Frc consts  --      6.6613                 6.7114                 6.6905
 IR Inten    --      3.8875                22.3845                 3.2312

                    139                    140                    141
                      A                      A                      A
 Frequencies --   3224.9900              3231.3653              3234.6355
 Red. masses --      1.0964                 1.0969                 1.1001
 Frc consts  --      6.7184                 6.7480                 6.7815
 IR Inten    --     22.5241                 7.6932                21.4977

                    142                    143                    144
                      A                      A                      A
 Frequencies --   3235.1540              3238.7270              3266.3453
 Red. masses --      1.1003                 1.1005                 1.0979
 Frc consts  --      6.7847                 6.8012                 6.9016
 IR Inten    --     18.9911                 9.6072                 3.4289

                    145                    146                    147
                      A                      A                      A
 Frequencies --   3266.8593              3276.2610              3281.0034
 Red. masses --      1.0981                 1.0980                 1.0978
 Frc consts  --      6.9046                 6.9439                 6.9630
 IR Inten    --      3.0814                 1.2540                 1.2672

 - Thermochemistry -
 -------------------
 Temperature   298.150 Kelvin.  Pressure   1.00000 Atm.
 Atom     1 has atomic number  7 and mass  14.00307

 Molecular mass:   420.16094 amu.
 Principal axes and moments of inertia in atomic units:
                           1         2         3
     Eigenvalues --  7363.75489********************
           X           -0.66905   0.24496   0.70169
           Y           -0.01275   0.94020  -0.34038
           Z            0.74311   0.23668   0.62592
 This molecule is an asymmetric top.
 Rotational symmetry number  1.
 Warning -- assumption of classical behavior for rotation
           may cause significant error
 Rotational temperatures (Kelvin)      0.01176     0.00340     0.00272
 Rotational constants (GHZ):           0.24508     0.07094     0.05676
 Zero-point vibrational energy    1043240.8 (Joules/Mol)
                                  249.34054 (Kcal/Mol)
 Warning -- explicit consideration of  37 degrees of freedom as
           vibrations may cause significant error
 Vibrational temperatures:     16.58    43.92    45.56    58.35    69.46
          (Kelvin)             72.27    84.15   107.38   134.88   149.81
                              190.23   196.00   256.27   268.68   294.81
                              304.03   341.63   358.50   382.62   390.01
                              438.02   520.86   529.09   558.36   594.26
                              595.66   600.59   605.60   633.06   672.09
                              695.11   730.32   740.81   756.15   759.96
                              878.78   891.96   898.41   898.57   920.43
                              931.07   942.70   978.94   981.20   991.88
                             1022.82  1029.59  1029.90  1033.53  1066.21
                             1106.65  1135.26  1137.10  1153.18  1249.73
                             1250.76  1258.25  1263.34  1272.04  1290.47
                             1295.79  1334.56  1347.46  1364.81  1365.07
                             1377.28  1382.65  1420.22  1443.70  1444.03
                             1457.94  1458.07  1458.65  1459.71  1475.62
                             1476.49  1482.27  1488.57  1526.03  1527.14
                             1528.64  1551.87  1563.68  1586.74  1591.24
                             1593.99  1641.65  1669.30  1670.77  1674.37
                             1682.73  1708.81  1710.40  1714.45  1716.86
                             1718.26  1727.71  1782.94  1837.77  1871.38
                             1889.17  1898.15  1922.61  1927.54  1941.37
                             1942.76  1945.54  2040.87  2046.52  2076.04
                             2085.28  2127.18  2143.83  2146.33  2158.95
                             2202.38  2205.70  2227.78  2263.02  2302.08
                             2355.92  2363.98  2388.53  2392.82  2393.43
                             2423.79  2433.65  2435.49  4609.41  4611.31
                             4614.50  4616.98  4620.84  4628.73  4629.03
                             4629.66  4637.56  4637.72  4640.04  4649.21
                             4653.91  4654.66  4659.80  4699.54  4700.28
                             4713.80  4720.63

 Zero-point correction=                           0.397349 (Hartree/Particle)
 Thermal correction to Energy=                    0.422067
 Thermal correction to Enthalpy=                  0.423011
 Thermal correction to Gibbs Free Energy=         0.339779
 Sum of electronic and zero-point Energies=          -1373.770915
 Sum of electronic and thermal Energies=             -1373.746197
 Sum of electronic and thermal Enthalpies=           -1373.745253
 Sum of electronic and thermal Free Energies=        -1373.828485

                     E (Thermal)             CV                S
                      KCal/Mol        Cal/Mol-Kelvin    Cal/Mol-Kelvin
 Total                  264.851             98.526            175.176
 Electronic               0.000              0.000              0.000
 Translational            0.889              2.981             43.997
 Rotational               0.889              2.981             37.030
 Vibrational            263.073             92.564             94.149
 Vibration     1          0.593              1.987              7.729
 Vibration     2          0.594              1.984              5.795
 Vibration     3          0.594              1.983              5.722
 Vibration     4          0.594              1.981              5.232
 Vibration     5          0.595              1.978              4.887
 Vibration     6          0.595              1.978              4.808
 Vibration     7          0.596              1.974              4.508
 Vibration     8          0.599              1.966              4.027
 Vibration     9          0.603              1.954              3.580
 Vibration    10          0.605              1.946              3.376
 Vibration    11          0.612              1.921              2.914
 Vibration    12          0.614              1.917              2.856
 Vibration    13          0.629              1.869              2.348
 Vibration    14          0.632              1.858              2.260
 Vibration    15          0.640              1.833              2.089
 Vibration    16          0.643              1.824              2.032
 Vibration    17          0.656              1.783              1.822
 Vibration    18          0.662              1.764              1.736
 Vibration    19          0.672              1.736              1.623
 Vibration    20          0.675              1.727              1.589
 Vibration    21          0.695              1.665              1.392
 Vibration    22          0.736              1.551              1.113
 Vibration    23          0.740              1.539              1.089
 Vibration    24          0.756              1.496              1.008
 Vibration    25          0.777              1.442              0.916
 Vibration    26          0.778              1.440              0.913
 Vibration    27          0.780              1.432              0.901
 Vibration    28          0.783              1.425              0.889
 Vibration    29          0.800              1.383              0.827
 Vibration    30          0.824              1.323              0.746
 Vibration    31          0.839              1.287              0.702
 Vibration    32          0.863              1.233              0.639
 Vibration    33          0.870              1.217              0.622
 Vibration    34          0.881              1.193              0.597
 Vibration    35          0.883              1.188              0.591
 Vibration    36          0.970              1.009              0.431
 Vibration    37          0.980              0.990              0.417

 Normal termination of Gaussian 09 at Wed Apr 22 12:29:39 2020.
