 Gaussian 16, Revision C.01,
 Gaussian 16:  ES64L-G16RevC.01  3-Jul-2019

 ----------------------------------------------------------------------
 #p m062x cc-pvdz scrf=(cpcm,solvent=n,n-DiMethylFormamide) opt=(tight,
 calcfc) freq nosymm int=ultrafine fchk
 ----------------------------------------------------------------------

 --------------------------------------
 BDP-PP-phenyl, optimized S0 in toluene
 --------------------------------------
 Symbolic Z-matrix:
 Charge =  0 Multiplicity = 1

 SCF Done:  E(RM062X) =  -1374.17529142     A.U. after   12 cycles
 SCF Done:  E(RM062X) =  -1374.17536934     A.U. after   10 cycles
 SCF Done:  E(RM062X) =  -1374.17536941     A.U. after    7 cycles
 SCF Done:  E(RM062X) =  -1374.17536942     A.U. after    5 cycles
 SCF Done:  E(RM062X) =  -1374.17536942     A.U. after    3 cycles
 SCF Done:  E(RM062X) =  -1374.17536942     A.U. after    4 cycles
 SCF Done:  E(RM062X) =  -1374.17536942     A.U. after    3 cycles
 SCF Done:  E(RM062X) =  -1374.17536942     A.U. after    4 cycles
 SCF Done:  E(RM062X) =  -1374.17536942     A.U. after    3 cycles
 SCF Done:  E(RM062X) =  -1374.17536942     A.U. after    3 cycles
 SCF Done:  E(RM062X) =  -1374.17536942     A.U. after    3 cycles
 SCF Done:  E(RM062X) =  -1374.17536942     A.U. after    3 cycles
 SCF Done:  E(RM062X) =  -1374.17536942     A.U. after    4 cycles
 SCF Done:  E(RM062X) =  -1374.17536942     A.U. after    3 cycles
 SCF Done:  E(RM062X) =  -1374.17536942     A.U. after    3 cycles
 SCF Done:  E(RM062X) =  -1374.17536942     A.U. after    3 cycles
 Optimization completed.
    -- Stationary point found.
 Normal termination of Gaussian 16 at Tue Feb  1 07:31:54 2022.

 -------------------------------------------------------------------
 #P Geom=AllCheck Guess=TCheck SCRF=Check GenChk RM062X/CC-pVDZ Freq
 -------------------------------------------------------------------

 Structure from the checkpoint file:  "bodipy.chk"
 --------------------------------------
 BDP-PP-phenyl, optimized S0 in toluene
 --------------------------------------
 Charge =  0 Multiplicity = 1

                          Input orientation:
 ---------------------------------------------------------------------
 Center     Atomic      Atomic             Coordinates (Angstroms)
 Number     Number       Type             X           Y           Z
 ---------------------------------------------------------------------
      1          7           0       12.410156   -9.438827   -1.136939
      2          6           0       13.182594   -9.804409   -2.161708
      3          6           0       14.061705   -8.752474   -2.521140
      4          6           0       13.772736   -7.701019   -1.649959
      5          6           0       12.747756   -8.139160   -0.778719
      6          6           0       11.499120   -5.116648    0.783834
      7          6           0       11.862061   -3.820627    1.141622
      8          6           0       13.198458   -3.512895    1.399583
      9          6           0       14.175149   -4.503944    1.292890
     10          6           0       13.820974   -5.798484    0.921211
     11          6           0       12.478120   -6.114980    0.665958
     12          6           0       12.093224   -7.489059    0.281733
     13          6           0       11.076924   -8.154833    0.988475
     14          6           0       10.356839   -7.781293    2.147651
     15          6           0        9.524324   -8.848725    2.486923
     16          6           0        9.770965   -9.854115    1.518796
     17          7           0       10.684737   -9.440696    0.638618
     18          9           0       11.617012  -11.519428   -0.176072
     19          5           0       11.207904  -10.251261   -0.578930
     20          9           0       10.214099  -10.353420   -1.553550
     21          1           0       13.065443  -10.784986   -2.618823
     22          1           0       14.243500   -6.722296   -1.622126
     23          1           0       10.456910   -5.355806    0.568321
     24          1           0       11.096899   -3.047788    1.217250
     25          1           0       13.479401   -2.498796    1.685435
     26          1           0       15.218911   -4.269970    1.503270
     27          1           0       14.581069   -6.577995    0.855372
     28          1           0       10.478760   -6.845009    2.685426
     29          1           0        9.320535  -10.840278    1.425373
     30          6           0       15.053633   -8.786847   -3.608321
     31          6           0       15.547617   -7.596170   -4.162032
     32          6           0       15.524286  -10.008072   -4.113849
     33          6           0       16.485967   -7.626335   -5.190779
     34          6           0       16.458734  -10.036992   -5.146893
     35          6           0       16.944790   -8.846807   -5.689224
     36          1           0       15.181473   -6.636180   -3.794548
     37          1           0       15.168582  -10.946912   -3.686197
     38          1           0       16.856110   -6.690090   -5.610237
     39          1           0       16.813716  -10.996262   -5.525439
     40          1           0       17.677386   -8.869904   -6.496559
     41          6           0        8.581846   -8.942250    3.613759
     42          6           0        8.085218   -7.781535    4.225575
     43          6           0        8.162201  -10.189744    4.099718
     44          6           0        7.197401   -7.866300    5.295460
     45          6           0        7.269321  -10.273140    5.165978
     46          6           0        6.784073   -9.112395    5.769510
     47          1           0        8.384934   -6.802138    3.849014
     48          1           0        8.549567  -11.106103    3.651325
     49          1           0        6.820343   -6.952847    5.756880
     50          1           0        6.956152  -11.251918    5.531187
     51          1           0        6.086540   -9.178318    6.605049
 ---------------------------------------------------------------------

 SCF Done:  E(RM062X) =  -1374.17536942     A.U. after    1 cycles

 Alpha  occ. eigenvalues --  -25.21804 -25.21517 -14.80872 -14.80849 -10.62483
 Alpha  occ. eigenvalues --  -10.61071 -10.61068 -10.60300 -10.60280 -10.58614
 Alpha  occ. eigenvalues --  -10.57360 -10.57340 -10.57312 -10.57303 -10.57283
 Alpha  occ. eigenvalues --  -10.57277 -10.57036 -10.57015 -10.56818 -10.56671
 Alpha  occ. eigenvalues --  -10.56654 -10.55991 -10.55989 -10.55935 -10.55934
 Alpha  occ. eigenvalues --  -10.55862 -10.55862 -10.55845 -10.55844 -10.55704
 Alpha  occ. eigenvalues --  -10.55702  -7.14072  -1.32207  -1.28875  -1.12244
 Alpha  occ. eigenvalues --   -1.10298  -0.98811  -0.97158  -0.97035  -0.93603
 Alpha  occ. eigenvalues --   -0.91392  -0.90327  -0.86293  -0.85433  -0.85417
 Alpha  occ. eigenvalues --   -0.84671  -0.84614  -0.84522  -0.81621  -0.77023
 Alpha  occ. eigenvalues --   -0.72587  -0.70825  -0.70731  -0.70173  -0.69947
 Alpha  occ. eigenvalues --   -0.68665  -0.67547  -0.66516  -0.65933  -0.65349
 Alpha  occ. eigenvalues --   -0.62367  -0.60965  -0.60675  -0.58469  -0.58106
 Alpha  occ. eigenvalues --   -0.57480  -0.57339  -0.54848  -0.53987  -0.53377
 Alpha  occ. eigenvalues --   -0.53134  -0.52903  -0.52379  -0.52277  -0.51916
 Alpha  occ. eigenvalues --   -0.51426  -0.51184  -0.50397  -0.49747  -0.49418
 Alpha  occ. eigenvalues --   -0.48765  -0.48739  -0.48193  -0.47393  -0.47247
 Alpha  occ. eigenvalues --   -0.47076  -0.46483  -0.45942  -0.45550  -0.45072
 Alpha  occ. eigenvalues --   -0.44578  -0.44576  -0.42475  -0.41688  -0.41444
 Alpha  occ. eigenvalues --   -0.41019  -0.40643  -0.40087  -0.39956  -0.37786
 Alpha  occ. eigenvalues --   -0.35482  -0.35258  -0.32252  -0.31582  -0.31360
 Alpha  occ. eigenvalues --   -0.31310  -0.30126  -0.28630  -0.25648
 Alpha virt. eigenvalues --   -0.09358   0.00168   0.00665   0.01101   0.01291
 Alpha virt. eigenvalues --    0.02031   0.02213   0.05839   0.09631   0.09866
 Alpha virt. eigenvalues --    0.10426   0.10598   0.11562   0.12492   0.12637

 Mulliken charges:
               1
     1  N   -0.182221
     2  C    0.107202
     3  C   -0.017739
     4  C   -0.069867
     5  C    0.115115
     6  C    0.005553
     7  C    0.005988
     8  C    0.001768
     9  C    0.005675
    10  C    0.004782
    11  C   -0.104069
    12  C    0.115726
    13  C    0.108833
    14  C   -0.064294
    15  C   -0.021257
    16  C    0.107487
    17  N   -0.180472
    18  F   -0.234922
    19  B    0.183367
    20  F   -0.232218
    21  H    0.062713
    22  H    0.029507
    23  H    0.021955
    24  H    0.029237
    25  H    0.028604
    26  H    0.029286
    27  H    0.023248
    28  H    0.030025
    29  H    0.062186
    30  C    0.003251
    31  C   -0.032371
    32  C   -0.036531
    33  C    0.004694
    34  C    0.003964
    35  C   -0.008517
    36  H    0.011547
    37  H    0.010465
    38  H    0.019638
    39  H    0.019884
    40  H    0.018184
    41  C    0.003487
    42  C   -0.030897
    43  C   -0.035712
    44  C    0.004048
    45  C    0.003570
    46  C   -0.008872
    47  H    0.010738
    48  H    0.010346
    49  H    0.019714
    50  H    0.019906
    51  H    0.018269
 Sum of Mulliken charges =  -0.00000

 Dipole moment (field-independent basis, Debye):
    X=              2.3313    Y=              6.3189    Z=              2.2778  Tot=              7.1099
 Quadrupole moment (field-independent basis, Debye-Ang):
   XX=           -112.1395   YY=           -265.7769   ZZ=           -170.1175
   XY=             57.6492   XZ=              4.8532   YZ=            -14.7012

  Exact polarizability:     533.291      44.864     488.251    -332.003      48.225     556.206
 Approx polarizability:     439.294      32.566     468.113    -206.898      40.600     435.884

                      1                      2                      3
                      A                      A                      A
 Frequencies --     12.3949                30.2566                32.4163
 Red. masses --      8.5258                 3.6710                 3.7621
 Frc consts  --      0.0008                 0.0020                 0.0023
 IR Inten    --      1.6400                 0.1130                 0.1790

                      4                      5                      6
                      A                      A                      A
 Frequencies --     41.3060                48.6882                50.7499
 Red. masses --      7.5725                 5.7789                 5.4785
 Frc consts  --      0.0076                 0.0081                 0.0083
 IR Inten    --      0.2825                 0.1547                 0.2575

                      7                      8                      9
                      A                      A                      A
 Frequencies --     59.7032                76.5343                93.7025
 Red. masses --      5.2807                 4.4788                 4.6241
 Frc consts  --      0.0111                 0.0155                 0.0239
 IR Inten    --      0.0483                 1.2335                 0.9771

                     10                     11                     12
                      A                      A                      A
 Frequencies --    105.1415               132.7098               137.0220
 Red. masses --      5.3092                 6.0578                 7.1472
 Frc consts  --      0.0346                 0.0629                 0.0791
 IR Inten    --      0.5950                 0.8888                 0.0299

                     13                     14                     15
                      A                      A                      A
 Frequencies --    178.5931               187.5204               206.0131
 Red. masses --      4.7515                 6.0261                 5.5799
 Frc consts  --      0.0893                 0.1248                 0.1395
 IR Inten    --      1.0737                 0.3754                 0.0367

                     16                     17                     18
                      A                      A                      A
 Frequencies --    212.8512               237.9450               249.6705
 Red. masses --      7.8725                 4.9285                 8.5641
 Frc consts  --      0.2101                 0.1644                 0.3145
 IR Inten    --      8.4891                 0.3928                 2.7205

                     19                     20                     21
                      A                      A                      A
 Frequencies --    266.0526               270.8225               304.5779
 Red. masses --      5.1700                 5.5199                 5.3436
 Frc consts  --      0.2156                 0.2385                 0.2921
 IR Inten    --      0.6085                 9.7923                 2.9696

                     22                     23                     24
                      A                      A                      A
 Frequencies --    363.1774               368.3413               387.8652
 Red. masses --      7.3067                 6.1505                 8.4641
 Frc consts  --      0.5678                 0.4917                 0.7502
 IR Inten    --     16.3220                 0.0422                13.5556

                     25                     26                     27
                      A                      A                      A
 Frequencies --    413.6030               414.8591               417.4936
 Red. masses --      2.8823                 2.8950                 3.2043
 Frc consts  --      0.2905                 0.2936                 0.3291
 IR Inten    --      0.6447                 0.0038                12.9554

                     28                     29                     30
                      A                      A                      A
 Frequencies --    420.3331               441.5557               468.3308
 Red. masses --      6.0702                 7.0157                 4.6678
 Frc consts  --      0.6319                 0.8059                 0.6032
 IR Inten    --     57.1379                11.8977               114.8722

                     31                     32                     33
                      A                      A                      A
 Frequencies --    483.9579               506.6955               514.9023
 Red. masses --      5.2481                 4.2513                 6.0223
 Frc consts  --      0.7242                 0.6431                 0.9407
 IR Inten    --      6.6368                27.3661                 9.9323

                     34                     35                     36
                      A                      A                      A
 Frequencies --    525.3636               527.8261               610.3022
 Red. masses --      3.3878                 3.7861                 9.0608
 Frc consts  --      0.5509                 0.6215                 1.9884
 IR Inten    --     12.6127                17.0691                 4.8917

                     37                     38                     39
                      A                      A                      A
 Frequencies --    619.4523               623.8698               623.8866
 Red. masses --      6.2954                 5.9491                 5.9051
 Frc consts  --      1.4233                 1.3642                 1.3542
 IR Inten    --      1.4068                 1.3210                 1.5336

                     40                     41                     42
                      A                      A                      A
 Frequencies --    639.4558               647.1029               654.5712
 Red. masses --      4.4868                 2.4705                 2.9897
 Frc consts  --      1.0810                 0.6095                 0.7547
 IR Inten    --      2.0056                 7.6084                37.8711

                     43                     44                     45
                      A                      A                      A
 Frequencies --    679.5345               681.3158               688.0286
 Red. masses --      6.2088                 6.4179                 5.3141
 Frc consts  --      1.6892                 1.7553                 1.4822
 IR Inten    --     32.1087                70.4068                 0.3627

                     46                     47                     48
                      A                      A                      A
 Frequencies --    710.4965               716.3075               716.4709
 Red. masses --      5.5177                 1.7916                 1.7936
 Frc consts  --      1.6411                 0.5416                 0.5425
 IR Inten    --      2.2308                 9.6029                91.5368

                     49                     50                     51
                      A                      A                      A
 Frequencies --    718.2319               740.5246               770.0283
 Red. masses --      2.3816                 2.3778                 5.5965
 Frc consts  --      0.7239                 0.7683                 1.9551
 IR Inten    --     13.8233               250.5142                89.4767

                     52                     53                     54
                      A                      A                      A
 Frequencies --    790.2403               791.4884               802.0799
 Red. masses --      1.8277                 1.8733                 2.4254
 Frc consts  --      0.6725                 0.6914                 0.9193
 IR Inten    --     22.7317                94.6167                 9.1950

                     55                     56                     57
                      A                      A                      A
 Frequencies --    871.1445               871.5212               877.7909
 Red. masses --      1.2758                 1.2677                 1.3654
 Frc consts  --      0.5705                 0.5673                 0.6199
 IR Inten    --      0.1097                 0.3104                 3.6846

                     58                     59                     60
                      A                      A                      A
 Frequencies --    882.2686               885.1210               896.6334
 Red. masses --      1.4844                 1.2843                 1.5942
 Frc consts  --      0.6808                 0.5928                 0.7552
 IR Inten    --     14.2572                 7.2824                11.6335

                     61                     62                     63
                      A                      A                      A
 Frequencies --    899.7872               926.3297               935.7856
 Red. masses --      1.5834                 6.5746                 6.3449
 Frc consts  --      0.7553                 3.3239                 3.2736
 IR Inten    --     32.9169                45.3139                71.0275

                     64                     65                     66
                      A                      A                      A
 Frequencies --    951.4104               951.6708               955.5694
 Red. masses --      1.5986                 1.4763                 5.3572
 Frc consts  --      0.8526                 0.7878                 2.8821
 IR Inten    --     12.4167                 0.3540                37.8101

                     67                     68                     69
                      A                      A                      A
 Frequencies --    963.6958               989.5912              1007.0142
 Red. masses --      1.5322                 2.6724                 1.4163
 Frc consts  --      0.8384                 1.5419                 0.8462
 IR Inten    --     10.8623                 1.1247                 1.0309

                     70                     71                     72
                      A                      A                      A
 Frequencies --   1007.4069              1011.9625              1012.8325
 Red. masses --      1.4033                 5.4519                 4.9193
 Frc consts  --      0.8391                 3.2895                 2.9732
 IR Inten    --      0.7848                20.0252                 3.8949

                     73                     74                     75
                      A                      A                      A
 Frequencies --   1012.9190              1016.1778              1024.6668
 Red. masses --      5.2611                 1.4082                 4.6332
 Frc consts  --      3.1804                 0.8568                 2.8662
 IR Inten    --      0.1692                19.5218               228.9199

                     76                     77                     78
                      A                      A                      A
 Frequencies --   1029.1374              1029.8014              1037.7348
 Red. masses --      1.3051                 1.3048                 1.3105
 Frc consts  --      0.8144                 0.8153                 0.8315
 IR Inten    --      0.4477                 0.4679                 0.2422

                     79                     80                     81
                      A                      A                      A
 Frequencies --   1059.4971              1060.4677              1061.4821
 Red. masses --      2.2827                 2.1171                 2.1377
 Frc consts  --      1.5097                 1.4028                 1.4192
 IR Inten    --      5.0136                13.2044                 7.7985

                     82                     83                     84
                      A                      A                      A
 Frequencies --   1080.1261              1086.1630              1100.3077
 Red. masses --      1.8218                 1.7898                 1.6088
 Frc consts  --      1.2523                 1.2441                 1.1476
 IR Inten    --    487.2418                74.8252               731.5505

                     85                     86                     87
                      A                      A                      A
 Frequencies --   1105.2683              1107.6134              1133.3096
 Red. masses --      1.4714                 1.4480                 2.7000
 Frc consts  --      1.0590                 1.0466                 2.0432
 IR Inten    --     20.3774                 7.3525              2766.8315

                     88                     89                     90
                      A                      A                      A
 Frequencies --   1157.6118              1158.4197              1161.2548
 Red. masses --      1.0862                 1.0897                 1.0929
 Frc consts  --      0.8576                 0.8616                 0.8684
 IR Inten    --      4.2922                11.1075                 1.5315

                     91                     92                     93
                      A                      A                      A
 Frequencies --   1162.0007              1176.4098              1185.6673
 Red. masses --      6.4202                 4.3336                 1.1177
 Frc consts  --      5.1075                 3.5336                 0.9258
 IR Inten    --    323.1662               378.1646                11.0957

                     94                     95                     96
                      A                      A                      A
 Frequencies --   1189.1972              1190.7641              1192.9058
 Red. masses --      1.2970                 1.5404                 1.3136
 Frc consts  --      1.0807                 1.2869                 1.1013
 IR Inten    --      3.4556                10.0342                 4.3870

                     97                     98                     99
                      A                      A                      A
 Frequencies --   1198.8315              1238.0573              1273.6032
 Red. masses --      1.5750                 2.4382                 2.4689
 Frc consts  --      1.3336                 2.2019                 2.3595
 IR Inten    --      5.4358                22.6214              1244.0667

                    100                    101                    102
                      A                      A                      A
 Frequencies --   1297.5768              1312.8395              1318.7103
 Red. masses --      2.3994                 1.8662                 1.7033
 Frc consts  --      2.3802                 1.8951                 1.7452
 IR Inten    --    863.1670                 9.4807               103.3924

                    103                    104                    105
                      A                      A                      A
 Frequencies --   1333.1058              1340.2501              1348.4105
 Red. masses --      2.6584                 3.9046                 3.6469
 Frc consts  --      2.7836                 4.1323                 3.9067
 IR Inten    --    646.5118               122.2263                 2.2172

                    106                    107                    108
                      A                      A                      A
 Frequencies --   1349.1805              1351.5096              1417.0257
 Red. masses --      3.0310                 2.7538                 4.4416
 Frc consts  --      3.2507                 2.9636                 5.2547
 IR Inten    --     14.0479                22.8793               250.4159

                    109                    110                    111
                      A                      A                      A
 Frequencies --   1420.4940              1441.0332              1447.1315
 Red. masses --      4.6659                 5.7516                 4.5767
 Frc consts  --      5.5471                 7.0369                 5.6471
 IR Inten    --    325.9213                20.6983                 3.5351

                    112                    113                    114
                      A                      A                      A
 Frequencies --   1477.0934              1488.7525              1490.8305
 Red. masses --      2.5431                 2.7351                 2.8879
 Frc consts  --      3.2691                 3.5716                 3.7817
 IR Inten    --     41.5924               270.3482                30.0264

                    115                    116                    117
                      A                      A                      A
 Frequencies --   1498.0648              1528.8981              1531.6377
 Red. masses --      3.4815                 3.0224                 2.7406
 Frc consts  --      4.6033                 4.1626                 3.7879
 IR Inten    --     10.6270               238.3107                 5.4401

                    118                    119                    120
                      A                      A                      A
 Frequencies --   1544.9745              1569.8271              1592.9445
 Red. masses --      6.3114                 5.8031                 7.5820
 Frc consts  --      8.8761                 8.4259                11.3353
 IR Inten    --    174.8621                67.2667              1439.8909

                    121                    122                    123
                      A                      A                      A
 Frequencies --   1632.9885              1640.8685              1657.4556
 Red. masses --      6.4098                 6.3149                 6.5322
 Frc consts  --     10.0707                10.0177                10.5728
 IR Inten    --   1077.7032                 1.1972               127.9290

                    124                    125                    126
                      A                      A                      A
 Frequencies --   1661.2221              1661.8086              1681.6643
 Red. masses --      6.5644                 6.5557                 6.5168
 Frc consts  --     10.6733                10.6667                10.8583
 IR Inten    --     12.9846                14.9383                19.4370

                    127                    128                    129
                      A                      A                      A
 Frequencies --   1689.2884              1690.6164              3205.0386
 Red. masses --      6.5771                 6.5350                 1.0861
 Frc consts  --     11.0584                11.0049                 6.5732
 IR Inten    --      7.5404                10.2196                11.1107

                    130                    131                    132
                      A                      A                      A
 Frequencies --   3205.9315              3208.2915              3209.5209
 Red. masses --      1.0859                 1.0886                 1.0885
 Frc consts  --      6.5760                 6.6017                 6.6066
 IR Inten    --      9.5003                 0.7179                 0.7610

                    133                    134                    135
                      A                      A                      A
 Frequencies --   3213.5450              3217.8636              3218.1861
 Red. masses --      1.0863                 1.0920                 1.0920
 Frc consts  --      6.6093                 6.6618                 6.6633
 IR Inten    --      0.3761                 2.3657                 3.0687

                    136                    137                    138
                      A                      A                      A
 Frequencies --   3218.8302              3223.9289              3224.2947
 Red. masses --      1.0893                 1.0964                 1.0929
 Frc consts  --      6.6495                 6.7141                 6.6943
 IR Inten    --      0.2315                27.2964                 3.8306

                    139                    140                    141
                      A                      A                      A
 Frequencies --   3224.8612              3232.8111              3235.0601
 Red. masses --      1.0965                 1.0969                 1.1003
 Frc consts  --      6.7184                 6.7541                 6.7843
 IR Inten    --     28.5276                10.1805                40.0920

                    142                    143                    144
                      A                      A                      A
 Frequencies --   3235.0938              3239.7469              3264.8797
 Red. masses --      1.1002                 1.1005                 1.0981
 Frc consts  --      6.7839                 6.8055                 6.8963
 IR Inten    --      5.5050                11.5654                 4.0411

                    145                    146                    147
                      A                      A                      A
 Frequencies --   3265.1572              3276.3440              3280.5035
 Red. masses --      1.0983                 1.0983                 1.0981
 Frc consts  --      6.8988                 6.9461                 6.9625
 IR Inten    --      2.3792                 2.0109                 2.1280

 - Thermochemistry -
 -------------------
 Temperature   298.150 Kelvin.  Pressure   1.00000 Atm.
 Atom     1 has atomic number  7 and mass  14.00307

 Molecular mass:   420.16094 amu.
 Principal axes and moments of inertia in atomic units:
                           1         2         3
     Eigenvalues --  7362.41369********************
           X           -0.66926   0.24315   0.70212
           Y           -0.01264   0.94108  -0.33795
           Z            0.74292   0.23506   0.62675
 This molecule is an asymmetric top.
 Rotational symmetry number  1.
 Warning -- assumption of classical behavior for rotation
           may cause significant error
 Rotational temperatures (Kelvin)      0.01176     0.00340     0.00272
 Rotational constants (GHZ):           0.24513     0.07095     0.05670
 Zero-point vibrational energy    1042876.8 (Joules/Mol)
                                  249.25354 (Kcal/Mol)
 Warning -- explicit consideration of  37 degrees of freedom as
           vibrations may cause significant error
 Vibrational temperatures:     17.83    43.53    46.64    59.43    70.05
          (Kelvin)             73.02    85.90   110.12   134.82   151.28
                              190.94   197.14   256.96   269.80   296.41
                              306.25   342.35   359.22   382.79   389.65
                              438.22   522.53   529.96   558.05   595.08
                              596.89   600.68   604.77   635.30   673.82
                              696.31   729.02   740.83   755.88   759.42
                              878.09   891.25   897.61   897.63   920.03
                              931.04   941.78   977.70   980.26   989.92
                             1022.25  1030.61  1030.84  1033.38  1065.45
                             1107.90  1136.98  1138.78  1154.01  1253.38
                             1253.92  1262.95  1269.39  1273.49  1290.06
                             1294.59  1332.78  1346.39  1368.87  1369.24
                             1374.85  1386.54  1423.80  1448.87  1449.43
                             1455.99  1457.24  1457.36  1462.05  1474.27
                             1480.70  1481.65  1493.07  1524.38  1525.78
                             1527.24  1554.06  1562.75  1583.10  1590.23
                             1593.61  1630.58  1665.55  1666.71  1670.79
                             1671.86  1692.59  1705.91  1710.99  1713.24
                             1716.33  1724.85  1781.29  1832.43  1866.92
                             1888.88  1897.33  1918.04  1928.32  1940.06
                             1941.17  1944.52  2038.78  2043.77  2073.33
                             2082.10  2125.21  2141.98  2144.97  2155.38
                             2199.74  2203.69  2222.87  2258.63  2291.89
                             2349.51  2360.84  2384.71  2390.13  2390.97
                             2419.54  2430.51  2432.42  4611.34  4612.62
                             4616.02  4617.78  4623.57  4629.79  4630.25
                             4631.18  4638.51  4639.04  4639.86  4651.29
                             4654.53  4654.58  4661.27  4697.43  4697.83
                             4713.93  4719.91

 Zero-point correction=                           0.397211 (Hartree/Particle)
 Thermal correction to Energy=                    0.421901
 Thermal correction to Enthalpy=                  0.422845
 Thermal correction to Gibbs Free Energy=         0.339817
 Sum of electronic and zero-point Energies=          -1373.778159
 Sum of electronic and thermal Energies=             -1373.753469
 Sum of electronic and thermal Enthalpies=           -1373.752524
 Sum of electronic and thermal Free Energies=        -1373.835553

                     E (Thermal)             CV                S
                      KCal/Mol        Cal/Mol-Kelvin    Cal/Mol-Kelvin
 Total                  264.747             98.527            174.748
 Electronic               0.000              0.000              0.000
 Translational            0.889              2.981             43.997
 Rotational               0.889              2.981             37.031
 Vibrational            262.969             92.566             93.720
 Vibration     1          0.593              1.987              7.585
 Vibration     2          0.594              1.984              5.813
 Vibration     3          0.594              1.983              5.676
 Vibration     4          0.594              1.981              5.195
 Vibration     5          0.595              1.978              4.870
 Vibration     6          0.595              1.977              4.788
 Vibration     7          0.597              1.974              4.467
 Vibration     8          0.599              1.965              3.978
 Vibration     9          0.603              1.954              3.581
 Vibration    10          0.605              1.945              3.357
 Vibration    11          0.613              1.921              2.906
 Vibration    12          0.614              1.916              2.845
 Vibration    13          0.629              1.869              2.343
 Vibration    14          0.632              1.857              2.252
 Vibration    15          0.640              1.831              2.079
 Vibration    16          0.644              1.821              2.019
 Vibration    17          0.656              1.783              1.818
 Vibration    18          0.662              1.763              1.733
 Vibration    19          0.672              1.735              1.622
 Vibration    20          0.675              1.727              1.591
 Vibration    21          0.695              1.665              1.392
 Vibration    22          0.737              1.548              1.108
 Vibration    23          0.741              1.537              1.087
 Vibration    24          0.756              1.496              1.008
 Vibration    25          0.777              1.441              0.914
 Vibration    26          0.778              1.438              0.910
 Vibration    27          0.781              1.432              0.901
 Vibration    28          0.783              1.426              0.891
 Vibration    29          0.801              1.380              0.822
 Vibration    30          0.826              1.320              0.742
 Vibration    31          0.840              1.286              0.699
 Vibration    32          0.862              1.235              0.642
 Vibration    33          0.870              1.217              0.622
 Vibration    34          0.880              1.194              0.598
 Vibration    35          0.883              1.188              0.592
 Vibration    36          0.969              1.010              0.432
 Vibration    37          0.979              0.991              0.417

                           ! Non-Optimized Parameters !
 Normal termination of Gaussian 16 at Tue Feb  1 08:07:22 2022.
