 Gaussian 16, Revision C.01,
 Gaussian 16:  ES64L-G16RevC.01  3-Jul-2019

 ----------------------------------------------------------------------
 #p m062x cc-pvdz scrf=(cpcm,solvent=DiMethylSulfoxide) opt=(tight,calc
 fc) freq nosymm int=ultrafine fchk
 ----------------------------------------------------------------------

 --------------------------------------
 BDP-PP-phenyl, optimized S0 in toluene
 --------------------------------------
 Symbolic Z-matrix:
 Charge =  0 Multiplicity = 1

 SCF Done:  E(RM062X) =  -1374.17539491     A.U. after   12 cycles
 SCF Done:  E(RM062X) =  -1374.17547522     A.U. after   10 cycles
 SCF Done:  E(RM062X) =  -1374.17547530     A.U. after    7 cycles
 SCF Done:  E(RM062X) =  -1374.17547530     A.U. after    5 cycles
 SCF Done:  E(RM062X) =  -1374.17547530     A.U. after    3 cycles
 SCF Done:  E(RM062X) =  -1374.17547530     A.U. after    5 cycles
 SCF Done:  E(RM062X) =  -1374.17547530     A.U. after    3 cycles
 Optimization completed on the basis of negligible forces.
    -- Stationary point found.
 Normal termination of Gaussian 16 at Tue Feb  1 07:22:45 2022.

 -------------------------------------------------------------------
 #P Geom=AllCheck Guess=TCheck SCRF=Check GenChk RM062X/CC-pVDZ Freq
 -------------------------------------------------------------------

 Structure from the checkpoint file:  "bodipy.chk"
 --------------------------------------
 BDP-PP-phenyl, optimized S0 in toluene
 --------------------------------------
 Charge =  0 Multiplicity = 1

                          Input orientation:
 ---------------------------------------------------------------------
 Center     Atomic      Atomic             Coordinates (Angstroms)
 Number     Number       Type             X           Y           Z
 ---------------------------------------------------------------------
      1          7           0       12.410346   -9.438935   -1.136753
      2          6           0       13.182787   -9.804522   -2.161556
      3          6           0       14.061794   -8.752550   -2.521059
      4          6           0       13.772782   -7.701060   -1.649905
      5          6           0       12.747875   -8.139216   -0.778611
      6          6           0       11.499009   -5.116725    0.783983
      7          6           0       11.861880   -3.820664    1.141695
      8          6           0       13.198294   -3.512797    1.399436
      9          6           0       14.175078   -4.503746    1.292595
     10          6           0       13.820982   -5.798324    0.920977
     11          6           0       12.478107   -6.114956    0.665951
     12          6           0       12.093298   -7.489061    0.281803
     13          6           0       11.077007   -8.154879    0.988546
     14          6           0       10.356862   -7.781323    2.147663
     15          6           0        9.524362   -8.848784    2.486953
     16          6           0        9.771079   -9.854211    1.518911
     17          7           0       10.684893   -9.440789    0.638733
     18          9           0       11.617342  -11.519545   -0.175751
     19          5           0       11.208201  -10.251344   -0.578672
     20          9           0       10.214383  -10.353807   -1.553358
     21          1           0       13.065725  -10.785135   -2.618619
     22          1           0       14.243467   -6.722295   -1.622152
     23          1           0       10.456782   -5.355957    0.568638
     24          1           0       11.096651   -3.047906    1.217444
     25          1           0       13.479179   -2.498668    1.685234
     26          1           0       15.218849   -4.269664    1.502802
     27          1           0       14.581165   -6.577739    0.855041
     28          1           0       10.478684   -6.844989    2.685373
     29          1           0        9.320696  -10.840405    1.425565
     30          6           0       15.053677   -8.786882   -3.608297
     31          6           0       15.547943   -7.596168   -4.161692
     32          6           0       15.523985  -10.008095   -4.114195
     33          6           0       16.486219   -7.626289   -5.190518
     34          6           0       16.458364  -10.036963   -5.147312
     35          6           0       16.944692   -8.846744   -5.689344
     36          1           0       15.182126   -6.636173   -3.793898
     37          1           0       15.168064  -10.946979   -3.686820
     38          1           0       16.856589   -6.690018   -5.609718
     39          1           0       16.813074  -10.996219   -5.526149
     40          1           0       17.677233   -8.869802   -6.496730
     41          6           0        8.581824   -8.942262    3.613755
     42          6           0        8.085413   -7.781509    4.225689
     43          6           0        8.161913  -10.189739    4.099547
     44          6           0        7.197535   -7.866229    5.295537
     45          6           0        7.268977  -10.273082    5.165774
     46          6           0        6.783938   -9.112304    5.769427
     47          1           0        8.385347   -6.802117    3.849290
     48          1           0        8.549085  -11.106133    3.651057
     49          1           0        6.820654   -6.952753    5.757056
     50          1           0        6.955598  -11.251841    5.530853
     51          1           0        6.086365   -9.178186    6.604936
 ---------------------------------------------------------------------

 SCF Done:  E(RM062X) =  -1374.17547530     A.U. after    1 cycles

 Alpha  occ. eigenvalues --  -25.21819 -25.21533 -14.80878 -14.80855 -10.62487
 Alpha  occ. eigenvalues --  -10.61076 -10.61073 -10.60304 -10.60284 -10.58611
 Alpha  occ. eigenvalues --  -10.57363 -10.57344 -10.57315 -10.57306 -10.57279
 Alpha  occ. eigenvalues --  -10.57273 -10.57040 -10.57019 -10.56812 -10.56665
 Alpha  occ. eigenvalues --  -10.56647 -10.55993 -10.55991 -10.55937 -10.55936
 Alpha  occ. eigenvalues --  -10.55864 -10.55863 -10.55846 -10.55846 -10.55705
 Alpha  occ. eigenvalues --  -10.55703  -7.14084  -1.32221  -1.28889  -1.12249
 Alpha  occ. eigenvalues --   -1.10303  -0.98809  -0.97160  -0.97038  -0.93603
 Alpha  occ. eigenvalues --   -0.91396  -0.90331  -0.86294  -0.85431  -0.85416
 Alpha  occ. eigenvalues --   -0.84672  -0.84615  -0.84525  -0.81624  -0.77025
 Alpha  occ. eigenvalues --   -0.72590  -0.70827  -0.70729  -0.70174  -0.69948
 Alpha  occ. eigenvalues --   -0.68666  -0.67549  -0.66520  -0.65936  -0.65351
 Alpha  occ. eigenvalues --   -0.62370  -0.60964  -0.60683  -0.58472  -0.58117
 Alpha  occ. eigenvalues --   -0.57481  -0.57342  -0.54850  -0.53986  -0.53382
 Alpha  occ. eigenvalues --   -0.53135  -0.52906  -0.52381  -0.52277  -0.51918
 Alpha  occ. eigenvalues --   -0.51432  -0.51189  -0.50399  -0.49743  -0.49419
 Alpha  occ. eigenvalues --   -0.48766  -0.48740  -0.48197  -0.47403  -0.47249
 Alpha  occ. eigenvalues --   -0.47078  -0.46487  -0.45954  -0.45557  -0.45072
 Alpha  occ. eigenvalues --   -0.44583  -0.44579  -0.42483  -0.41683  -0.41439
 Alpha  occ. eigenvalues --   -0.41020  -0.40644  -0.40087  -0.39957  -0.37789
 Alpha  occ. eigenvalues --   -0.35487  -0.35262  -0.32247  -0.31580  -0.31363
 Alpha  occ. eigenvalues --   -0.31312  -0.30130  -0.28633  -0.25653
 Alpha virt. eigenvalues --   -0.09362   0.00165   0.00662   0.01104   0.01296
 Alpha virt. eigenvalues --    0.02028   0.02211   0.05835   0.09637   0.09863
 Alpha virt. eigenvalues --    0.10428   0.10602   0.11562   0.12496   0.12637

 Mulliken charges:
               1
     1  N   -0.182218
     2  C    0.107100
     3  C   -0.017798
     4  C   -0.069838
     5  C    0.115034
     6  C    0.005528
     7  C    0.005959
     8  C    0.001756
     9  C    0.005644
    10  C    0.004760
    11  C   -0.104114
    12  C    0.115860
    13  C    0.108757
    14  C   -0.064252
    15  C   -0.021311
    16  C    0.107388
    17  N   -0.180471
    18  F   -0.235059
    19  B    0.183274
    20  F   -0.232399
    21  H    0.062774
    22  H    0.029658
    23  H    0.022012
    24  H    0.029331
    25  H    0.028704
    26  H    0.029377
    27  H    0.023303
    28  H    0.030162
    29  H    0.062248
    30  C    0.003159
    31  C   -0.032456
    32  C   -0.036627
    33  C    0.004631
    34  C    0.003891
    35  C   -0.008575
    36  H    0.011665
    37  H    0.010548
    38  H    0.019739
    39  H    0.019970
    40  H    0.018277
    41  C    0.003376
    42  C   -0.030976
    43  C   -0.035802
    44  C    0.003979
    45  C    0.003494
    46  C   -0.008932
    47  H    0.010876
    48  H    0.010424
    49  H    0.019819
    50  H    0.019991
    51  H    0.018363
 Sum of Mulliken charges =  -0.00000

 Dipole moment (field-independent basis, Debye):
    X=              2.3351    Y=              6.3334    Z=              2.2818  Tot=              7.1254
 Quadrupole moment (field-independent basis, Debye-Ang):
   XX=           -112.0191   YY=           -265.9870   ZZ=           -170.0901
   XY=             57.7976   XZ=              4.8729   YZ=            -14.7242

  Exact polarizability:     534.405      44.989     489.486    -332.668      48.395     557.237
 Approx polarizability:     439.261      32.601     468.144    -206.872      40.632     435.840

                      1                      2                      3
                      A                      A                      A
 Frequencies --     12.3970                30.2241                32.3824
 Red. masses --      8.5283                 3.6710                 3.7622
 Frc consts  --      0.0008                 0.0020                 0.0023
 IR Inten    --      1.6468                 0.1133                 0.1794

                      4                      5                      6
                      A                      A                      A
 Frequencies --     41.3069                48.6917                50.7553
 Red. masses --      7.5717                 5.7783                 5.4783
 Frc consts  --      0.0076                 0.0081                 0.0083
 IR Inten    --      0.2833                 0.1548                 0.2591

                      7                      8                      9
                      A                      A                      A
 Frequencies --     59.7165                76.5530                93.6971
 Red. masses --      5.2806                 4.4790                 4.6235
 Frc consts  --      0.0111                 0.0155                 0.0239
 IR Inten    --      0.0488                 1.2459                 0.9799

                     10                     11                     12
                      A                      A                      A
 Frequencies --    105.1538               132.7138               137.0286
 Red. masses --      5.3099                 6.0573                 7.1449
 Frc consts  --      0.0346                 0.0629                 0.0790
 IR Inten    --      0.5995                 0.8911                 0.0300

                     13                     14                     15
                      A                      A                      A
 Frequencies --    178.6009               187.5314               206.0285
 Red. masses --      4.7520                 6.0273                 5.5792
 Frc consts  --      0.0893                 0.1249                 0.1395
 IR Inten    --      1.0805                 0.3752                 0.0366

                     16                     17                     18
                      A                      A                      A
 Frequencies --    212.8706               237.9501               249.6791
 Red. masses --      7.8732                 4.9284                 8.5637
 Frc consts  --      0.2102                 0.1644                 0.3145
 IR Inten    --      8.5731                 0.3980                 2.7262

                     19                     20                     21
                      A                      A                      A
 Frequencies --    266.0525               270.8164               304.5736
 Red. masses --      5.1700                 5.5204                 5.3432
 Frc consts  --      0.2156                 0.2385                 0.2920
 IR Inten    --      0.6107                 9.8730                 2.9882

                     22                     23                     24
                      A                      A                      A
 Frequencies --    363.1895               368.3504               387.8619
 Red. masses --      7.3078                 6.1504                 8.4650
 Frc consts  --      0.5679                 0.4917                 0.7503
 IR Inten    --     16.4659                 0.0424                13.6440

                     25                     26                     27
                      A                      A                      A
 Frequencies --    413.6088               414.8691               417.4910
 Red. masses --      2.8822                 2.8951                 3.2052
 Frc consts  --      0.2905                 0.2936                 0.3292
 IR Inten    --      0.6527                 0.0041                13.0922

                     28                     29                     30
                      A                      A                      A
 Frequencies --    420.3221               441.5739               468.3448
 Red. masses --      6.0659                 7.0184                 4.6677
 Frc consts  --      0.6314                 0.8063                 0.6032
 IR Inten    --     57.5647                11.9894               115.6379

                     31                     32                     33
                      A                      A                      A
 Frequencies --    483.9707               506.6773               514.9006
 Red. masses --      5.2463                 4.2514                 6.0240
 Frc consts  --      0.7240                 0.6430                 0.9410
 IR Inten    --      6.6694                27.5235                 9.9693

                     34                     35                     36
                      A                      A                      A
 Frequencies --    525.3588               527.8177               610.2936
 Red. masses --      3.3880                 3.7863                 9.0609
 Frc consts  --      0.5509                 0.6215                 1.9884
 IR Inten    --     12.6796                17.1448                 4.8957

                     37                     38                     39
                      A                      A                      A
 Frequencies --    619.4450               623.8601               623.8768
 Red. masses --      6.2956                 5.9496                 5.9059
 Frc consts  --      1.4233                 1.3643                 1.3544
 IR Inten    --      1.4079                 1.3358                 1.5442

                     40                     41                     42
                      A                      A                      A
 Frequencies --    639.4520               647.1007               654.5576
 Red. masses --      4.4880                 2.4703                 2.9887
 Frc consts  --      1.0812                 0.6094                 0.7544
 IR Inten    --      2.0152                 7.6664                38.0996

                     43                     44                     45
                      A                      A                      A
 Frequencies --    679.5199               681.3059               688.0072
 Red. masses --      6.2086                 6.4181                 5.3145
 Frc consts  --      1.6891                 1.7553                 1.4822
 IR Inten    --     32.2613                70.5684                 0.3624

                     46                     47                     48
                      A                      A                      A
 Frequencies --    710.4902               716.3131               716.4769
 Red. masses --      5.5180                 1.7919                 1.7936
 Frc consts  --      1.6412                 0.5417                 0.5425
 IR Inten    --      2.2391                 9.6828                91.8748

                     49                     50                     51
                      A                      A                      A
 Frequencies --    718.2236               740.5088               770.0407
 Red. masses --      2.3803                 2.3781                 5.5973
 Frc consts  --      0.7234                 0.7683                 1.9555
 IR Inten    --     13.8229               252.0298                90.1472

                     52                     53                     54
                      A                      A                      A
 Frequencies --    790.2554               791.5010               802.0856
 Red. masses --      1.8278                 1.8733                 2.4260
 Frc consts  --      0.6725                 0.6914                 0.9196
 IR Inten    --     22.8183                94.9016                 9.2278

                     55                     56                     57
                      A                      A                      A
 Frequencies --    871.1766               871.5507               877.8334
 Red. masses --      1.2756                 1.2676                 1.3648
 Frc consts  --      0.5704                 0.5673                 0.6196
 IR Inten    --      0.1084                 0.3059                 3.7273

                     58                     59                     60
                      A                      A                      A
 Frequencies --    882.3352               885.1305               896.6217
 Red. masses --      1.4841                 1.2850                 1.5946
 Frc consts  --      0.6807                 0.5931                 0.7553
 IR Inten    --     14.2886                 7.2976                11.6715

                     61                     62                     63
                      A                      A                      A
 Frequencies --    899.7587               926.3095               935.7726
 Red. masses --      1.5838                 6.5747                 6.3471
 Frc consts  --      0.7555                 3.3238                 3.2747
 IR Inten    --     33.1260                45.6575                71.4829

                     64                     65                     66
                      A                      A                      A
 Frequencies --    951.4447               951.7113               955.5452
 Red. masses --      1.6025                 1.4763                 5.3132
 Frc consts  --      0.8547                 0.7878                 2.8583
 IR Inten    --     12.7007                 0.3584                37.9246

                     67                     68                     69
                      A                      A                      A
 Frequencies --    963.7270               989.6270              1007.0656
 Red. masses --      1.5318                 2.6733                 1.4171
 Frc consts  --      0.8382                 1.5425                 0.8468
 IR Inten    --     11.0229                 1.1235                 1.0506

                     70                     71                     72
                      A                      A                      A
 Frequencies --   1007.4599              1011.9370              1012.8181
 Red. masses --      1.4035                 5.4555                 4.9122
 Frc consts  --      0.8393                 3.2915                 2.9689
 IR Inten    --      0.7967                20.4889                 3.9092

                     73                     74                     75
                      A                      A                      A
 Frequencies --   1012.9028              1016.1994              1024.5755
 Red. masses --      5.2608                 1.4090                 4.6292
 Frc consts  --      3.1800                 0.8573                 2.8632
 IR Inten    --      0.1692                19.9595               229.6393

                     76                     77                     78
                      A                      A                      A
 Frequencies --   1029.1889              1029.8518              1037.7782
 Red. masses --      1.3051                 1.3048                 1.3105
 Frc consts  --      0.8145                 0.8154                 0.8316
 IR Inten    --      0.4522                 0.4687                 0.2439

                     79                     80                     81
                      A                      A                      A
 Frequencies --   1059.4801              1060.4524              1061.4666
 Red. masses --      2.2827                 2.1168                 2.1379
 Frc consts  --      1.5097                 1.4025                 1.4192
 IR Inten    --      5.0457                13.2623                 7.8525

                     82                     83                     84
                      A                      A                      A
 Frequencies --   1080.1363              1086.1527              1100.2541
 Red. masses --      1.8230                 1.7886                 1.6107
 Frc consts  --      1.2531                 1.2432                 1.1488
 IR Inten    --    495.6899                75.0579               741.8468

                     85                     86                     87
                      A                      A                      A
 Frequencies --   1105.2573              1107.6092              1133.1696
 Red. masses --      1.4714                 1.4479                 2.6955
 Frc consts  --      1.0591                 1.0466                 2.0393
 IR Inten    --     20.4187                 7.3546              2778.6307

                     88                     89                     90
                      A                      A                      A
 Frequencies --   1157.5735              1158.3768              1161.2178
 Red. masses --      1.0861                 1.0899                 1.0951
 Frc consts  --      0.8575                 0.8617                 0.8700
 IR Inten    --      4.2883                11.1988                 1.9102

                     91                     92                     93
                      A                      A                      A
 Frequencies --   1161.7712              1176.2056              1185.6307
 Red. masses --      6.4241                 4.3070                 1.1174
 Frc consts  --      5.1087                 3.5107                 0.9255
 IR Inten    --    324.1294               379.2489                11.2280

                     94                     95                     96
                      A                      A                      A
 Frequencies --   1189.1769              1190.7662              1192.8995
 Red. masses --      1.2891                 1.5413                 1.3219
 Frc consts  --      1.0741                 1.2876                 1.1083
 IR Inten    --      3.3701                 9.9033                 4.3810

                     97                     98                     99
                      A                      A                      A
 Frequencies --   1198.8655              1238.0360              1273.5387
 Red. masses --      1.5735                 2.4383                 2.4656
 Frc consts  --      1.3325                 2.2019                 2.3561
 IR Inten    --      5.3618                22.8032              1252.9829

                    100                    101                    102
                      A                      A                      A
 Frequencies --   1297.5294              1312.8351              1318.6994
 Red. masses --      2.4015                 1.8670                 1.7041
 Frc consts  --      2.3822                 1.8959                 1.7460
 IR Inten    --    863.7602                 9.4789               103.6633

                    103                    104                    105
                      A                      A                      A
 Frequencies --   1333.0633              1340.2589              1348.3978
 Red. masses --      2.6543                 3.9046                 3.6465
 Frc consts  --      2.7791                 4.1324                 3.9063
 IR Inten    --    644.4475               122.9179                 2.2256

                    106                    107                    108
                      A                      A                      A
 Frequencies --   1349.1642              1351.4971              1417.0004
 Red. masses --      3.0296                 2.7518                 4.4407
 Frc consts  --      3.2492                 2.9614                 5.2534
 IR Inten    --     14.1041                22.9741               251.8924

                    109                    110                    111
                      A                      A                      A
 Frequencies --   1420.4628              1441.0021              1447.0990
 Red. masses --      4.6668                 5.7512                 4.5763
 Frc consts  --      5.5479                 7.0362                 5.6463
 IR Inten    --    326.7153                20.7236                 3.4383

                    112                    113                    114
                      A                      A                      A
 Frequencies --   1477.0725              1488.7318              1490.8157
 Red. masses --      2.5432                 2.7350                 2.8883
 Frc consts  --      3.2691                 3.5714                 3.7822
 IR Inten    --     41.9076               271.8045                30.1324

                    115                    116                    117
                      A                      A                      A
 Frequencies --   1498.0244              1528.8684              1531.6129
 Red. masses --      3.4817                 3.0224                 2.7404
 Frc consts  --      4.6034                 4.1624                 3.7876
 IR Inten    --     10.7120               239.2164                 5.5272

                    118                    119                    120
                      A                      A                      A
 Frequencies --   1544.9211              1569.7759              1592.8226
 Red. masses --      6.3098                 5.7996                 7.5821
 Frc consts  --      8.8732                 8.4202                11.3338
 IR Inten    --    175.8539                67.6884              1447.9350

                    121                    122                    123
                      A                      A                      A
 Frequencies --   1632.9226              1640.8344              1657.4140
 Red. masses --      6.4046                 6.3130                 6.5313
 Frc consts  --     10.0618                10.0142                10.5709
 IR Inten    --   1077.7577                 1.2083               127.6302

                    124                    125                    126
                      A                      A                      A
 Frequencies --   1661.1945              1661.7809              1681.6173
 Red. masses --      6.5642                 6.5555                 6.5169
 Frc consts  --     10.6726                10.6661                10.8579
 IR Inten    --     12.9420                14.8726                19.6257

                    127                    128                    129
                      A                      A                      A
 Frequencies --   1689.2559              1690.5822              3205.0608
 Red. masses --      6.5771                 6.5349                 1.0861
 Frc consts  --     11.0580                11.0043                 6.5733
 IR Inten    --      7.5435                10.2363                11.1008

                    130                    131                    132
                      A                      A                      A
 Frequencies --   3205.9423              3208.3109              3209.5259
 Red. masses --      1.0859                 1.0886                 1.0885
 Frc consts  --      6.5760                 6.6018                 6.6066
 IR Inten    --      9.5015                 0.7283                 0.7657

                    133                    134                    135
                      A                      A                      A
 Frequencies --   3213.5753              3217.8747              3218.1897
 Red. masses --      1.0863                 1.0920                 1.0920
 Frc consts  --      6.6095                 6.6619                 6.6634
 IR Inten    --      0.3752                 2.3633                 3.0497

                    136                    137                    138
                      A                      A                      A
 Frequencies --   3218.8536              3223.9428              3224.3098
 Red. masses --      1.0893                 1.0964                 1.0929
 Frc consts  --      6.6496                 6.7142                 6.6943
 IR Inten    --      0.2291                27.3830                 3.8234

                    139                    140                    141
                      A                      A                      A
 Frequencies --   3224.8571              3232.8350              3235.0589
 Red. masses --      1.0965                 1.0969                 1.1003
 Frc consts  --      6.7184                 6.7542                 6.7844
 IR Inten    --     28.6408                10.2254                36.7673

                    142                    143                    144
                      A                      A                      A
 Frequencies --   3235.1007              3239.7649              3264.8507
 Red. masses --      1.1001                 1.1005                 1.0981
 Frc consts  --      6.7838                 6.8056                 6.8962
 IR Inten    --      8.9097                11.6018                 4.0507

                    145                    146                    147
                      A                      A                      A
 Frequencies --   3265.1270              3276.3447              3280.4949
 Red. masses --      1.0983                 1.0983                 1.0981
 Frc consts  --      6.8987                 6.9461                 6.9624
 IR Inten    --      2.3631                 2.0286                 2.1476

 - Thermochemistry -
 -------------------
 Temperature   298.150 Kelvin.  Pressure   1.00000 Atm.
 Atom     1 has atomic number  7 and mass  14.00307

 Molecular mass:   420.16094 amu.
 Principal axes and moments of inertia in atomic units:
                           1         2         3
     Eigenvalues --  7362.40834********************
           X           -0.66926   0.24312   0.70212
           Y           -0.01264   0.94109  -0.33792
           Z            0.74292   0.23503   0.62676
 This molecule is an asymmetric top.
 Rotational symmetry number  1.
 Warning -- assumption of classical behavior for rotation
           may cause significant error
 Rotational temperatures (Kelvin)      0.01176     0.00340     0.00272
 Rotational constants (GHZ):           0.24513     0.07095     0.05670
 Zero-point vibrational energy    1042868.6 (Joules/Mol)
                                  249.25157 (Kcal/Mol)
 Warning -- explicit consideration of  37 degrees of freedom as
           vibrations may cause significant error
 Vibrational temperatures:     17.84    43.49    46.59    59.43    70.06
          (Kelvin)             73.03    85.92   110.14   134.81   151.29
                              190.95   197.15   256.97   269.82   296.43
                              306.27   342.36   359.23   382.79   389.64
                              438.21   522.55   529.97   558.05   595.09
                              596.90   600.68   604.75   635.33   673.84
                              696.33   729.00   740.83   755.87   759.41
                              878.08   891.24   897.60   897.62   920.03
                              931.03   941.76   977.68   980.25   989.89
                             1022.24  1030.61  1030.85  1033.36  1065.43
                             1107.92  1137.00  1138.79  1154.02  1253.43
                             1253.97  1263.01  1269.48  1273.51  1290.04
                             1294.55  1332.75  1346.37  1368.92  1369.30
                             1374.82  1386.59  1423.85  1448.94  1449.51
                             1455.95  1457.22  1457.34  1462.08  1474.14
                             1480.77  1481.73  1493.13  1524.36  1525.75
                             1527.21  1554.08  1562.73  1583.02  1590.22
                             1593.60  1630.38  1665.49  1666.65  1670.73
                             1671.53  1692.30  1705.86  1710.96  1713.25
                             1716.32  1724.90  1781.26  1832.34  1866.86
                             1888.88  1897.31  1917.98  1928.33  1940.04
                             1941.15  1944.50  2038.75  2043.73  2073.28
                             2082.05  2125.18  2141.95  2144.95  2155.32
                             2199.70  2203.65  2222.80  2258.56  2291.72
                             2349.41  2360.79  2384.65  2390.09  2390.93
                             2419.47  2430.46  2432.37  4611.37  4612.64
                             4616.04  4617.79  4623.62  4629.80  4630.26
                             4631.21  4638.53  4639.06  4639.85  4651.33
                             4654.53  4654.59  4661.30  4697.39  4697.79
                             4713.93  4719.90

 Zero-point correction=                           0.397208 (Hartree/Particle)
 Thermal correction to Energy=                    0.421898
 Thermal correction to Enthalpy=                  0.422842
 Thermal correction to Gibbs Free Energy=         0.339813
 Sum of electronic and zero-point Energies=          -1373.778268
 Sum of electronic and thermal Energies=             -1373.753578
 Sum of electronic and thermal Enthalpies=           -1373.752633
 Sum of electronic and thermal Free Energies=        -1373.835663

                     E (Thermal)             CV                S
                      KCal/Mol        Cal/Mol-Kelvin    Cal/Mol-Kelvin
 Total                  264.745             98.528            174.749
 Electronic               0.000              0.000              0.000
 Translational            0.889              2.981             43.997
 Rotational               0.889              2.981             37.031
 Vibrational            262.967             92.566             93.722
 Vibration     1          0.593              1.987              7.584
 Vibration     2          0.594              1.984              5.815
 Vibration     3          0.594              1.983              5.678
 Vibration     4          0.594              1.981              5.195
 Vibration     5          0.595              1.978              4.870
 Vibration     6          0.595              1.977              4.788
 Vibration     7          0.597              1.974              4.467
 Vibration     8          0.599              1.965              3.977
 Vibration     9          0.603              1.954              3.581
 Vibration    10          0.605              1.945              3.356
 Vibration    11          0.613              1.921              2.906
 Vibration    12          0.614              1.916              2.845
 Vibration    13          0.629              1.869              2.343
 Vibration    14          0.632              1.857              2.252
 Vibration    15          0.641              1.831              2.079
 Vibration    16          0.644              1.821              2.019
 Vibration    17          0.656              1.783              1.818
 Vibration    18          0.662              1.763              1.733
 Vibration    19          0.672              1.735              1.622
 Vibration    20          0.675              1.727              1.591
 Vibration    21          0.695              1.665              1.392
 Vibration    22          0.737              1.548              1.108
 Vibration    23          0.741              1.537              1.087
 Vibration    24          0.756              1.496              1.008
 Vibration    25          0.777              1.441              0.914
 Vibration    26          0.778              1.438              0.910
 Vibration    27          0.781              1.432              0.901
 Vibration    28          0.783              1.426              0.891
 Vibration    29          0.801              1.379              0.822
 Vibration    30          0.826              1.320              0.742
 Vibration    31          0.840              1.286              0.699
 Vibration    32          0.862              1.235              0.642
 Vibration    33          0.870              1.217              0.622
 Vibration    34          0.880              1.194              0.598
 Vibration    35          0.883              1.188              0.592
 Vibration    36          0.969              1.010              0.432
 Vibration    37          0.979              0.991              0.417

                           ! Non-Optimized Parameters !
 Normal termination of Gaussian 16 at Tue Feb  1 07:59:24 2022.
