 Gaussian 16, Revision C.01,
 Gaussian 16:  ES64L-G16RevC.01  3-Jul-2019

 ----------------------------------------------------------------------
 #p m062x cc-pvdz scrf=(cpcm,solvent=Methanol) opt=(tight,calcfc) freq
 nosymm int=ultrafine fchk
 ----------------------------------------------------------------------

 --------------------------------------
 BDP-PP-phenyl, optimized S0 in toluene
 --------------------------------------
 Symbolic Z-matrix:
 Charge =  0 Multiplicity = 1

 SCF Done:  E(RM062X) =  -1374.17522027     A.U. after   12 cycles
 SCF Done:  E(RM062X) =  -1374.17529657     A.U. after   10 cycles
 SCF Done:  E(RM062X) =  -1374.17529664     A.U. after    7 cycles
 SCF Done:  E(RM062X) =  -1374.17529664     A.U. after    5 cycles
 SCF Done:  E(RM062X) =  -1374.17529664     A.U. after    3 cycles
 SCF Done:  E(RM062X) =  -1374.17529664     A.U. after    4 cycles
 SCF Done:  E(RM062X) =  -1374.17529664     A.U. after    3 cycles
 SCF Done:  E(RM062X) =  -1374.17529664     A.U. after    4 cycles
 SCF Done:  E(RM062X) =  -1374.17529664     A.U. after    3 cycles
 SCF Done:  E(RM062X) =  -1374.17529664     A.U. after    3 cycles
 SCF Done:  E(RM062X) =  -1374.17529664     A.U. after    3 cycles
 SCF Done:  E(RM062X) =  -1374.17529664     A.U. after    3 cycles
 SCF Done:  E(RM062X) =  -1374.17529664     A.U. after    4 cycles
 SCF Done:  E(RM062X) =  -1374.17529664     A.U. after    3 cycles
 SCF Done:  E(RM062X) =  -1374.17529664     A.U. after    3 cycles
 SCF Done:  E(RM062X) =  -1374.17529664     A.U. after    3 cycles
 Optimization completed.
    -- Stationary point found.
 Normal termination of Gaussian 16 at Tue Feb  1 07:36:45 2022.

 -------------------------------------------------------------------
 #P Geom=AllCheck Guess=TCheck SCRF=Check GenChk RM062X/CC-pVDZ Freq
 -------------------------------------------------------------------

 Structure from the checkpoint file:  "bodipy.chk"
 --------------------------------------
 BDP-PP-phenyl, optimized S0 in toluene
 --------------------------------------
 Charge =  0 Multiplicity = 1

                          Input orientation:
 ---------------------------------------------------------------------
 Center     Atomic      Atomic             Coordinates (Angstroms)
 Number     Number       Type             X           Y           Z
 ---------------------------------------------------------------------
      1          7           0       12.410028   -9.438754   -1.137065
      2          6           0       13.182464   -9.804332   -2.161811
      3          6           0       14.061646   -8.752422   -2.521194
      4          6           0       13.772705   -7.700992   -1.649995
      5          6           0       12.747676   -8.139122   -0.778791
      6          6           0       11.499193   -5.116596    0.783729
      7          6           0       11.862180   -3.820601    1.141567
      8          6           0       13.198565   -3.512958    1.399677
      9          6           0       14.175193   -4.504075    1.293088
     10          6           0       13.820967   -5.798589    0.921370
     11          6           0       12.478128   -6.114995    0.665962
     12          6           0       12.093173   -7.489057    0.281686
     13          6           0       11.076868   -8.154802    0.988427
     14          6           0       10.356823   -7.781272    2.147644
     15          6           0        9.524298   -8.848686    2.486904
     16          6           0        9.770888   -9.854050    1.518718
     17          7           0       10.684633   -9.440634    0.638541
     18          9           0       11.616791  -11.519349   -0.176287
     19          5           0       11.207704  -10.251207   -0.579103
     20          9           0       10.213908  -10.353159   -1.553677
     21          1           0       13.065251  -10.784885   -2.618961
     22          1           0       14.243523   -6.722296   -1.622107
     23          1           0       10.456994   -5.355705    0.568102
     24          1           0       11.097063   -3.047707    1.217110
     25          1           0       13.479547   -2.498880    1.685564
     26          1           0       15.218950   -4.270174    1.503586
     27          1           0       14.581001   -6.578165    0.855599
     28          1           0       10.478812   -6.845022    2.685462
     29          1           0        9.320427  -10.840193    1.425244
     30          6           0       15.053603   -8.786823   -3.608337
     31          6           0       15.547407   -7.596172   -4.162253
     32          6           0       15.524482  -10.008057   -4.113622
     33          6           0       16.485807   -7.626367   -5.190947
     34          6           0       16.458975  -10.037013   -5.146617
     35          6           0       16.944857   -8.846851   -5.689142
     36          1           0       15.181048   -6.636185   -3.794973
     37          1           0       15.168917  -10.946868   -3.685790
     38          1           0       16.855805   -6.690139   -5.610572
     39          1           0       16.814134  -10.996292   -5.524971
     40          1           0       17.677492   -8.869974   -6.496442
     41          6           0        8.581862   -8.942242    3.613763
     42          6           0        8.085090   -7.781553    4.225501
     43          6           0        8.162395  -10.189748    4.099833
     44          6           0        7.197314   -7.866350    5.295411
     45          6           0        7.269553  -10.273181    5.166116
     46          6           0        6.784165   -9.112458    5.769568
     47          1           0        8.384660   -6.802153    3.848832
     48          1           0        8.549892  -11.106082    3.651504
     49          1           0        6.820138   -6.952912    5.756766
     50          1           0        6.956525  -11.251971    5.531410
     51          1           0        6.086659   -9.178410    6.605127
 ---------------------------------------------------------------------

 SCF Done:  E(RM062X) =  -1374.17529664     A.U. after    1 cycles

 Alpha  occ. eigenvalues --  -25.21793 -25.21506 -14.80868 -14.80844 -10.62481
 Alpha  occ. eigenvalues --  -10.61067 -10.61065 -10.60297 -10.60277 -10.58615
 Alpha  occ. eigenvalues --  -10.57358 -10.57338 -10.57310 -10.57301 -10.57286
 Alpha  occ. eigenvalues --  -10.57280 -10.57033 -10.57012 -10.56823 -10.56675
 Alpha  occ. eigenvalues --  -10.56658 -10.55990 -10.55988 -10.55934 -10.55934
 Alpha  occ. eigenvalues --  -10.55862 -10.55861 -10.55844 -10.55844 -10.55703
 Alpha  occ. eigenvalues --  -10.55701  -7.14064  -1.32198  -1.28865  -1.12240
 Alpha  occ. eigenvalues --   -1.10295  -0.98813  -0.97156  -0.97034  -0.93603
 Alpha  occ. eigenvalues --   -0.91389  -0.90325  -0.86293  -0.85434  -0.85419
 Alpha  occ. eigenvalues --   -0.84670  -0.84613  -0.84521  -0.81618  -0.77022
 Alpha  occ. eigenvalues --   -0.72585  -0.70824  -0.70732  -0.70172  -0.69946
 Alpha  occ. eigenvalues --   -0.68664  -0.67546  -0.66514  -0.65932  -0.65348
 Alpha  occ. eigenvalues --   -0.62366  -0.60966  -0.60669  -0.58466  -0.58098
 Alpha  occ. eigenvalues --   -0.57480  -0.57337  -0.54846  -0.53988  -0.53373
 Alpha  occ. eigenvalues --   -0.53133  -0.52901  -0.52378  -0.52277  -0.51914
 Alpha  occ. eigenvalues --   -0.51423  -0.51180  -0.50396  -0.49751  -0.49418
 Alpha  occ. eigenvalues --   -0.48764  -0.48739  -0.48190  -0.47385  -0.47244
 Alpha  occ. eigenvalues --   -0.47075  -0.46480  -0.45933  -0.45544  -0.45073
 Alpha  occ. eigenvalues --   -0.44576  -0.44574  -0.42470  -0.41691  -0.41447
 Alpha  occ. eigenvalues --   -0.41018  -0.40642  -0.40086  -0.39955  -0.37784
 Alpha  occ. eigenvalues --   -0.35479  -0.35254  -0.32255  -0.31583  -0.31359
 Alpha  occ. eigenvalues --   -0.31309  -0.30124  -0.28629  -0.25645
 Alpha virt. eigenvalues --   -0.09355   0.00171   0.00667   0.01100   0.01288
 Alpha virt. eigenvalues --    0.02032   0.02214   0.05843   0.09627   0.09868
 Alpha virt. eigenvalues --    0.10424   0.10596   0.11562   0.12489   0.12638

 Mulliken charges:
               1
     1  N   -0.182223
     2  C    0.107272
     3  C   -0.017699
     4  C   -0.069888
     5  C    0.115170
     6  C    0.005570
     7  C    0.006008
     8  C    0.001776
     9  C    0.005696
    10  C    0.004796
    11  C   -0.104037
    12  C    0.115634
    13  C    0.108885
    14  C   -0.064322
    15  C   -0.021221
    16  C    0.107555
    17  N   -0.180472
    18  F   -0.234827
    19  B    0.183431
    20  F   -0.232094
    21  H    0.062671
    22  H    0.029403
    23  H    0.021917
    24  H    0.029172
    25  H    0.028535
    26  H    0.029223
    27  H    0.023211
    28  H    0.029931
    29  H    0.062143
    30  C    0.003316
    31  C   -0.032313
    32  C   -0.036465
    33  C    0.004737
    34  C    0.004014
    35  C   -0.008476
    36  H    0.011467
    37  H    0.010407
    38  H    0.019567
    39  H    0.019824
    40  H    0.018119
    41  C    0.003564
    42  C   -0.030843
    43  C   -0.035651
    44  C    0.004095
    45  C    0.003622
    46  C   -0.008830
    47  H    0.010644
    48  H    0.010292
    49  H    0.019641
    50  H    0.019846
    51  H    0.018204
 Sum of Mulliken charges =  -0.00000

 Dipole moment (field-independent basis, Debye):
    X=              2.3287    Y=              6.3089    Z=              2.2750  Tot=              7.0994
 Quadrupole moment (field-independent basis, Debye-Ang):
   XX=           -112.2223   YY=           -265.6331   ZZ=           -170.1363
   XY=             57.5479   XZ=              4.8396   YZ=            -14.6852

  Exact polarizability:     532.527      44.780     487.406    -331.547      48.108     555.499
 Approx polarizability:     439.316      32.543     468.093    -206.916      40.579     435.915

                      1                      2                      3
                      A                      A                      A
 Frequencies --     12.3933                30.2783                32.4369
 Red. masses --      8.5241                 3.6709                 3.7621
 Frc consts  --      0.0008                 0.0020                 0.0023
 IR Inten    --      1.6353                 0.1127                 0.1787

                      4                      5                      6
                      A                      A                      A
 Frequencies --     41.3053                48.6858                50.7462
 Red. masses --      7.5731                 5.7793                 5.4786
 Frc consts  --      0.0076                 0.0081                 0.0083
 IR Inten    --      0.2820                 0.1546                 0.2564

                      7                      8                      9
                      A                      A                      A
 Frequencies --     59.6940                76.5212                93.7059
 Red. masses --      5.2807                 4.4787                 4.6245
 Frc consts  --      0.0111                 0.0155                 0.0239
 IR Inten    --      0.0479                 1.2251                 0.9752

                     10                     11                     12
                      A                      A                      A
 Frequencies --    105.1332               132.7070               137.0174
 Red. masses --      5.3087                 6.0581                 7.1488
 Frc consts  --      0.0346                 0.0629                 0.0791
 IR Inten    --      0.5920                 0.8872                 0.0298

                     13                     14                     15
                      A                      A                      A
 Frequencies --    178.5877               187.5129               206.0028
 Red. masses --      4.7511                 6.0253                 5.5804
 Frc consts  --      0.0893                 0.1248                 0.1395
 IR Inten    --      1.0690                 0.3756                 0.0367

                     16                     17                     18
                      A                      A                      A
 Frequencies --    212.8381               237.9414               249.6647
 Red. masses --      7.8720                 4.9285                 8.5644
 Frc consts  --      0.2101                 0.1644                 0.3145
 IR Inten    --      8.4320                 0.3893                 2.7166

                     19                     20                     21
                      A                      A                      A
 Frequencies --    266.0524               270.8263               304.5803
 Red. masses --      5.1700                 5.5196                 5.3438
 Frc consts  --      0.2156                 0.2385                 0.2921
 IR Inten    --      0.6070                 9.7373                 2.9568

                     22                     23                     24
                      A                      A                      A
 Frequencies --    363.1694               368.3352               387.8674
 Red. masses --      7.3059                 6.1506                 8.4635
 Frc consts  --      0.5677                 0.4916                 0.7502
 IR Inten    --     16.2237                 0.0421                13.4952

                     25                     26                     27
                      A                      A                      A
 Frequencies --    413.5988               414.8522               417.4953
 Red. masses --      2.8823                 2.8950                 3.2037
 Frc consts  --      0.2905                 0.2936                 0.3290
 IR Inten    --      0.6393                 0.0037                12.8631

                     28                     29                     30
                      A                      A                      A
 Frequencies --    420.3402               441.5434               468.3215
 Red. masses --      6.0730                 7.0139                 4.6679
 Frc consts  --      0.6322                 0.8057                 0.6032
 IR Inten    --     56.8463                11.8357               114.3498

                     31                     32                     33
                      A                      A                      A
 Frequencies --    483.9493               506.7079               514.9036
 Red. masses --      5.2494                 4.2513                 6.0211
 Frc consts  --      0.7244                 0.6431                 0.9405
 IR Inten    --      6.6144                27.2586                 9.9071

                     34                     35                     36
                      A                      A                      A
 Frequencies --    525.3668               527.8313               610.3082
 Red. masses --      3.3877                 3.7860                 9.0607
 Frc consts  --      0.5509                 0.6215                 1.9884
 IR Inten    --     12.5668                17.0173                 4.8889

                     37                     38                     39
                      A                      A                      A
 Frequencies --    619.4572               623.8765               623.8933
 Red. masses --      6.2952                 5.9488                 5.9046
 Frc consts  --      1.4233                 1.3642                 1.3541
 IR Inten    --      1.4061                 1.3115                 1.5258

                     40                     41                     42
                      A                      A                      A
 Frequencies --    639.4584               647.1041               654.5802
 Red. masses --      4.4860                 2.4707                 2.9904
 Frc consts  --      1.0808                 0.6096                 0.7549
 IR Inten    --      1.9990                 7.5695                37.7139

                     43                     44                     45
                      A                      A                      A
 Frequencies --    679.5445               681.3226               688.0432
 Red. masses --      6.2090                 6.4178                 5.3139
 Frc consts  --      1.6893                 1.7553                 1.4822
 IR Inten    --     32.0042                70.2962                 0.3628

                     46                     47                     48
                      A                      A                      A
 Frequencies --    710.5008               716.3034               716.4667
 Red. masses --      5.5174                 1.7915                 1.7936
 Frc consts  --      1.6410                 0.5416                 0.5424
 IR Inten    --      2.2250                 9.5713                91.2838

                     49                     50                     51
                      A                      A                      A
 Frequencies --    718.2374               740.5352               770.0197
 Red. masses --      2.3826                 2.3777                 5.5959
 Frc consts  --      0.7242                 0.7682                 1.9549
 IR Inten    --     13.8219               249.4803                89.0194

                     52                     53                     54
                      A                      A                      A
 Frequencies --    790.2300               791.4797               802.0758
 Red. masses --      1.8277                 1.8733                 2.4250
 Frc consts  --      0.6724                 0.6914                 0.9192
 IR Inten    --     22.6689                94.4251                 9.1730

                     55                     56                     57
                      A                      A                      A
 Frequencies --    871.1220               871.5006               877.7612
 Red. masses --      1.2760                 1.2677                 1.3658
 Frc consts  --      0.5705                 0.5673                 0.6200
 IR Inten    --      0.1107                 0.3134                 3.6558

                     58                     59                     60
                      A                      A                      A
 Frequencies --    882.2228               885.1143               896.6412
 Red. masses --      1.4847                 1.2838                 1.5940
 Frc consts  --      0.6808                 0.5926                 0.7550
 IR Inten    --     14.2353                 7.2713                11.6055

                     61                     62                     63
                      A                      A                      A
 Frequencies --    899.8060               926.3436               935.7945
 Red. masses --      1.5831                 6.5745                 6.3433
 Frc consts  --      0.7552                 3.3240                 3.2729
 IR Inten    --     32.7765                45.0796                70.7171

                     64                     65                     66
                      A                      A                      A
 Frequencies --    951.3865               951.6427               955.5860
 Red. masses --      1.5961                 1.4763                 5.3869
 Frc consts  --      0.8512                 0.7877                 2.8982
 IR Inten    --     12.2270                 0.3505                37.7287

                     67                     68                     69
                      A                      A                      A
 Frequencies --    963.6741               989.5665              1006.9788
 Red. masses --      1.5324                 2.6718                 1.4158
 Frc consts  --      0.8385                 1.5415                 0.8459
 IR Inten    --     10.7535                 1.1258                 1.0177

                     70                     71                     72
                      A                      A                      A
 Frequencies --   1007.3703              1011.9799              1012.8424
 Red. masses --      1.4031                 5.4495                 4.9240
 Frc consts  --      0.8389                 3.2881                 2.9762
 IR Inten    --      0.7768                19.7133                 3.8850

                     73                     74                     75
                      A                      A                      A
 Frequencies --   1012.9302              1016.1626              1024.7295
 Red. masses --      5.2611                 1.4077                 4.6356
 Frc consts  --      3.1804                 0.8564                 2.8680
 IR Inten    --      0.1692                19.2294               228.4155

                     76                     77                     78
                      A                      A                      A
 Frequencies --   1029.1021              1029.7666              1037.7048
 Red. masses --      1.3052                 1.3049                 1.3104
 Frc consts  --      0.8144                 0.8153                 0.8314
 IR Inten    --      0.4448                 0.4677                 0.2411

                     79                     80                     81
                      A                      A                      A
 Frequencies --   1059.5088              1060.4782              1061.4927
 Red. masses --      2.2826                 2.1173                 2.1376
 Frc consts  --      1.5097                 1.4029                 1.4191
 IR Inten    --      4.9916                13.1648                 7.7619

                     82                     83                     84
                      A                      A                      A
 Frequencies --   1080.1188              1086.1700              1100.3441
 Red. masses --      1.8210                 1.7906                 1.6076
 Frc consts  --      1.2517                 1.2447                 1.1468
 IR Inten    --    481.5629                74.6629               724.5587

                     85                     86                     87
                      A                      A                      A
 Frequencies --   1105.2759              1107.6163              1133.4057
 Red. masses --      1.4713                 1.4481                 2.7031
 Frc consts  --      1.0590                 1.0467                 2.0459
 IR Inten    --     20.3482                 7.3514              2758.6630

                     88                     89                     90
                      A                      A                      A
 Frequencies --   1157.6381              1158.4490              1161.2799
 Red. masses --      1.0862                 1.0895                 1.0923
 Frc consts  --      0.8576                 0.8615                 0.8679
 IR Inten    --      4.2946                11.0507                 1.4507

                     91                     92                     93
                      A                      A                      A
 Frequencies --   1162.1561              1176.5526              1185.6924
 Red. masses --      6.3882                 4.3520                 1.1179
 Frc consts  --      5.0834                 3.5494                 0.9259
 IR Inten    --    322.3404               377.4041                11.0046

                     94                     95                     96
                      A                      A                      A
 Frequencies --   1189.2109              1190.7627              1192.9105
 Red. masses --      1.3027                 1.5393                 1.3081
 Frc consts  --      1.0855                 1.2859                 1.0967
 IR Inten    --      3.5192                10.1231                 4.3906

                     97                     98                     99
                      A                      A                      A
 Frequencies --   1198.8087              1238.0720              1273.6475
 Red. masses --      1.5760                 2.4381                 2.4712
 Frc consts  --      1.3345                 2.2019                 2.3618
 IR Inten    --      5.4908                22.4982              1237.9556

                    100                    101                    102
                      A                      A                      A
 Frequencies --   1297.6094              1312.8423              1318.7178
 Red. masses --      2.3979                 1.8657                 1.7027
 Frc consts  --      2.3789                 1.8946                 1.7446
 IR Inten    --    862.7317                 9.4808               103.2057

                    103                    104                    105
                      A                      A                      A
 Frequencies --   1333.1351              1340.2440              1348.4192
 Red. masses --      2.6613                 3.9046                 3.6471
 Frc consts  --      2.7867                 4.1323                 3.9071
 IR Inten    --    647.9252               121.7546                 2.2115

                    106                    107                    108
                      A                      A                      A
 Frequencies --   1349.1917              1351.5182              1417.0430
 Red. masses --      3.0319                 2.7551                 4.4423
 Frc consts  --      3.2517                 2.9651                 5.2556
 IR Inten    --     14.0095                22.8158               249.4075

                    109                    110                    111
                      A                      A                      A
 Frequencies --   1420.5154              1441.0545              1447.1538
 Red. masses --      4.6653                 5.7518                 4.5770
 Frc consts  --      5.5465                 7.0374                 5.6476
 IR Inten    --    325.3771                20.6805                 3.6024

                    112                    113                    114
                      A                      A                      A
 Frequencies --   1477.1077              1488.7668              1490.8407
 Red. masses --      2.5431                 2.7351                 2.8876
 Frc consts  --      3.2691                 3.5717                 3.7814
 IR Inten    --     41.3778               269.3532                29.9556

                    115                    116                    117
                      A                      A                      A
 Frequencies --   1498.0924              1528.9185              1531.6547
 Red. masses --      3.4813                 3.0224                 2.7407
 Frc consts  --      4.6033                 4.1627                 3.7882
 IR Inten    --     10.5692               237.6920                 5.3821

                    118                    119                    120
                      A                      A                      A
 Frequencies --   1545.0113              1569.8621              1593.0279
 Red. masses --      6.3125                 5.8056                 7.5818
 Frc consts  --      8.8781                 8.4298                11.3362
 IR Inten    --    174.1832                66.9787              1434.3713

                    121                    122                    123
                      A                      A                      A
 Frequencies --   1633.0338              1640.8918              1657.4841
 Red. masses --      6.4133                 6.3162                 6.5327
 Frc consts  --     10.0768                10.0200                10.5741
 IR Inten    --   1077.6610                 1.1898               128.1337

                    124                    125                    126
                      A                      A                      A
 Frequencies --   1661.2410              1661.8276              1681.6965
 Red. masses --      6.5645                 6.5558                 6.5167
 Frc consts  --     10.6737                10.6672                10.8585
 IR Inten    --     13.0142                14.9841                19.3084

                    127                    128                    129
                      A                      A                      A
 Frequencies --   1689.3106              1690.6397              3205.0237
 Red. masses --      6.5771                 6.5350                 1.0861
 Frc consts  --     11.0586                11.0052                 6.5731
 IR Inten    --      7.5381                10.2083                11.1173

                    130                    131                    132
                      A                      A                      A
 Frequencies --   3205.9240              3208.2787              3209.5176
 Red. masses --      1.0859                 1.0886                 1.0885
 Frc consts  --      6.5759                 6.6016                 6.6066
 IR Inten    --      9.4994                 0.7108                 0.7578

                    133                    134                    135
                      A                      A                      A
 Frequencies --   3213.5242              3217.8563              3218.1838
 Red. masses --      1.0863                 1.0920                 1.0920
 Frc consts  --      6.6092                 6.6618                 6.6633
 IR Inten    --      0.3767                 2.3675                 3.0818

                    136                    137                    138
                      A                      A                      A
 Frequencies --   3218.8141              3223.9198              3224.2842
 Red. masses --      1.0893                 1.0964                 1.0929
 Frc consts  --      6.6495                 6.7141                 6.6942
 IR Inten    --      0.2331                27.2369                 3.8353

                    139                    140                    141
                      A                      A                      A
 Frequencies --   3224.8639              3232.7947              3235.0602
 Red. masses --      1.0965                 1.0969                 1.1002
 Frc consts  --      6.7184                 6.7541                 6.7843
 IR Inten    --     28.4507                10.1498                42.5208

                    142                    143                    144
                      A                      A                      A
 Frequencies --   3235.0898              3239.7344              3264.8999
 Red. masses --      1.1002                 1.1005                 1.0981
 Frc consts  --      6.7839                 6.8055                 6.8964
 IR Inten    --      3.0209                11.5405                 4.0344

                    145                    146                    147
                      A                      A                      A
 Frequencies --   3265.1781              3276.3440              3280.5099
 Red. masses --      1.0983                 1.0983                 1.0981
 Frc consts  --      6.8989                 6.9461                 6.9625
 IR Inten    --      2.3901                 1.9989                 2.1147

 - Thermochemistry -
 -------------------
 Temperature   298.150 Kelvin.  Pressure   1.00000 Atm.
 Atom     1 has atomic number  7 and mass  14.00307

 Molecular mass:   420.16094 amu.
 Principal axes and moments of inertia in atomic units:
                           1         2         3
     Eigenvalues --  7362.41769********************
           X           -0.66926   0.24317   0.70212
           Y           -0.01265   0.94107  -0.33798
           Z            0.74292   0.23507   0.62674
 This molecule is an asymmetric top.
 Rotational symmetry number  1.
 Warning -- assumption of classical behavior for rotation
           may cause significant error
 Rotational temperatures (Kelvin)      0.01176     0.00340     0.00272
 Rotational constants (GHZ):           0.24513     0.07095     0.05670
 Zero-point vibrational energy    1042882.4 (Joules/Mol)
                                  249.25488 (Kcal/Mol)
 Warning -- explicit consideration of  37 degrees of freedom as
           vibrations may cause significant error
 Vibrational temperatures:     17.83    43.56    46.67    59.43    70.05
          (Kelvin)             73.01    85.89   110.10   134.82   151.26
                              190.94   197.14   256.95   269.79   296.39
                              306.23   342.34   359.21   382.79   389.66
                              438.22   522.52   529.95   558.05   595.08
                              596.88   600.68   604.78   635.28   673.81
                              696.30   729.04   740.83   755.89   759.43
                              878.10   891.26   897.62   897.64   920.04
                              931.04   941.79   977.71   980.27   989.94
                             1022.25  1030.60  1030.84  1033.38  1065.47
                             1107.89  1136.96  1138.76  1154.01  1253.35
                             1253.90  1262.90  1269.32  1273.48  1290.07
                             1294.62  1332.80  1346.40  1368.83  1369.20
                             1374.88  1386.51  1423.77  1448.82  1449.38
                             1456.01  1457.25  1457.38  1462.03  1474.36
                             1480.65  1481.60  1493.03  1524.40  1525.79
                             1527.25  1554.05  1562.76  1583.15  1590.25
                             1593.61  1630.72  1665.58  1666.75  1670.82
                             1672.08  1692.80  1705.95  1711.01  1713.24
                             1716.33  1724.82  1781.31  1832.49  1866.97
                             1888.89  1897.34  1918.08  1928.31  1940.07
                             1941.19  1944.53  2038.81  2043.80  2073.36
                             2082.13  2125.23  2142.00  2144.99  2155.42
                             2199.77  2203.71  2222.93  2258.68  2292.01
                             2349.57  2360.88  2384.75  2390.16  2391.00
                             2419.59  2430.54  2432.45  4611.31  4612.61
                             4616.00  4617.78  4623.54  4629.78  4630.25
                             4631.16  4638.50  4639.03  4639.86  4651.27
                             4654.53  4654.57  4661.26  4697.46  4697.86
                             4713.93  4719.92

 Zero-point correction=                           0.397213 (Hartree/Particle)
 Thermal correction to Energy=                    0.421903
 Thermal correction to Enthalpy=                  0.422847
 Thermal correction to Gibbs Free Energy=         0.339819
 Sum of electronic and zero-point Energies=          -1373.778084
 Sum of electronic and thermal Energies=             -1373.753394
 Sum of electronic and thermal Enthalpies=           -1373.752449
 Sum of electronic and thermal Free Energies=        -1373.835477

                     E (Thermal)             CV                S
                      KCal/Mol        Cal/Mol-Kelvin    Cal/Mol-Kelvin
 Total                  264.748             98.527            174.747
 Electronic               0.000              0.000              0.000
 Translational            0.889              2.981             43.997
 Rotational               0.889              2.981             37.031
 Vibrational            262.971             92.565             93.719
 Vibration     1          0.593              1.987              7.585
 Vibration     2          0.594              1.984              5.811
 Vibration     3          0.594              1.983              5.675
 Vibration     4          0.594              1.981              5.195
 Vibration     5          0.595              1.978              4.870
 Vibration     6          0.595              1.977              4.788
 Vibration     7          0.597              1.974              4.467
 Vibration     8          0.599              1.965              3.978
 Vibration     9          0.603              1.954              3.581
 Vibration    10          0.605              1.945              3.357
 Vibration    11          0.613              1.921              2.906
 Vibration    12          0.614              1.916              2.845
 Vibration    13          0.629              1.869              2.343
 Vibration    14          0.632              1.857              2.252
 Vibration    15          0.640              1.831              2.079
 Vibration    16          0.644              1.821              2.019
 Vibration    17          0.656              1.783              1.818
 Vibration    18          0.662              1.763              1.733
 Vibration    19          0.672              1.735              1.622
 Vibration    20          0.675              1.727              1.591
 Vibration    21          0.695              1.665              1.392
 Vibration    22          0.737              1.548              1.109
 Vibration    23          0.741              1.537              1.087
 Vibration    24          0.756              1.496              1.008
 Vibration    25          0.777              1.441              0.914
 Vibration    26          0.778              1.438              0.910
 Vibration    27          0.781              1.432              0.901
 Vibration    28          0.783              1.426              0.891
 Vibration    29          0.801              1.380              0.822
 Vibration    30          0.826              1.320              0.742
 Vibration    31          0.840              1.286              0.699
 Vibration    32          0.862              1.235              0.642
 Vibration    33          0.870              1.217              0.622
 Vibration    34          0.880              1.194              0.598
 Vibration    35          0.883              1.188              0.592
 Vibration    36          0.969              1.010              0.432
 Vibration    37          0.979              0.991              0.417

                           ! Non-Optimized Parameters !
 Normal termination of Gaussian 16 at Tue Feb  1 08:12:30 2022.
